LAMMPS (3 Mar 2020)


# ----------------- Init Section -----------------

include "system.in.init"
            units           real
            atom_style      full
            boundary        p p p
            bond_style      harmonic
            angle_style     harmonic
            pair_style      lj/cut/coul/long 12.0 13.0
            pair_modify     mix arithmetic
            dihedral_style  harmonic
            kspace_style    pppm 1.0e-5
            kspace_modify   gewald 0.29


# ----------------- Atom Definition Section -----------------

read_data "system.data"
  orthogonal box = (-1 -1 -1) to (31 31 101)
  1 by 1 by 2 MPI processor grid
  reading atoms ...
  6031 atoms
  scanning bonds ...
  1 = max bonds/atom
  scanning angles ...
  1 = max angles/atom
  reading bonds ...
  1802 bonds
  reading angles ...
  901 angles
  2 = max # of 1-2 neighbors
  1 = max # of 1-3 neighbors
  1 = max # of 1-4 neighbors
  2 = max # of special neighbors
  special bonds CPU = 0.0017388 secs
  read_data CPU = 0.276644 secs

# ----------------- Settings Section -----------------

include "system.in.settings"

        #     atom_id mass
        mass 1  1.0080
        mass 2 15.9994

        #           atom_i       atom_j       epsilon   sigma
        pair_coeff 1      1      0.000      0.000
        pair_coeff 2      2      0.1553     3.5533
        pair_coeff 1      2      0.000      0.000

        #           bond_id     k_harmonic      r0
        bond_coeff 1    1000.0           1.0

        #            angle_id    k_harmonic     theta0
        angle_coeff 1  1000.0          109.47

        group gSPCE type 1 2
2703 atoms in group gSPCE
        group hyd type 1
1802 atoms in group hyd
        group oxy type 2
901 atoms in group oxy

        fix fShakeSPCE gSPCE shake 0.0001 10 100 b 1 a 1
  0 = # of size 2 clusters
  0 = # of size 3 clusters
  0 = # of size 4 clusters
  901 = # of frozen angles
  find clusters CPU = 0.0008688 secs

        #     atom_id mass
        mass  3  12.0107

        # These Lennard-Jones parameters come from
        #  R. Saito, R. Matsuo, T. Kimura, G. Dresselhaus, M.S. Dresselhaus,
        #  Chem Phys Lett, 348:187 (2001)
        pair_coeff  3      3     0.068443   3.407

        # --- We must eventually specify the interactions between the atoms ---
        # --- in different molecule types (graphene-water interactions).    ---
        # (See Laurent Joly, J. Chem. Phys. 135(21):214705 (2011) for details
pair_coeff 2 3 0.114 3.28
pair_coeff 1 3 0.0 3.28


        # Define a group consisting of only carbon atoms in graphene molecules
        group gGraphene type 3
3328 atoms in group gGraphene

        # Only the gGraphene atoms are immobile.
        group mobile subtract all gGraphene
2703 atoms in group mobile

        # Use "neigh_modify" to turn off calculation of interactions between immobilized
        # atoms. (Note: group "gGraphene" was defined in the file "system.insettings")
        neigh_modify exclude group gGraphene gGraphene



# ----------------- Output Section -----------------

include "system.in.output"
     thermo 100
     dump 1 all custom 100 dump.lammpstrj id mol type x y z ix iy iz


# ----------------- Run Section -----------------

include "system.in.run"

# 速度の割り当て
velocity   all create 298.0 4928459
run 0
PPPM initialization ...
  using 12-bit tables for long-range coulomb (src/kspace.cpp:332)
WARNING: For better accuracy use 'pair_modify table 0' (src/kspace.cpp:353)
  G vector (1/distance) = 0.29
  grid = 24 24 60
  stencil order = 5
  estimated absolute RMS force accuracy = 0.00224203
  estimated relative force accuracy = 6.75181e-06
  using double precision FFTW3
  3d grid and FFT values/proc = 35557 17280
WARNING: Neighbor exclusions used with KSpace solver may give inconsistent Coulombic energies (src/neighbor.cpp:486)
Neighbor list info ...
  update every 1 steps, delay 10 steps, check yes
  max neighbors/atom: 2000, page size: 100000
  master list distance cutoff = 15
  ghost atom cutoff = 15
  binsize = 7.5, bins = 5 5 14
  1 neighbor lists, perpetual/occasional/extra = 1 0 0
  (1) pair lj/cut/coul/long, perpetual
      attributes: half, newton on
      pair build: half/bin/newton
      stencil: half/bin/3d/newton
      bin: standard
SHAKE stats (type/ave/delta) on step 0
  1 0.999974 2.46701e-06
  1 109.476 0.000209472
Per MPI rank memory allocation (min/avg/max) = 13.52 | 20.58 | 27.64 Mbytes
Step Temp E_pair E_mol TotEng Press 
       0          298    50706.618            0    55262.614    148199.65 
Loop time of 3.75e-06 on 2 procs for 0 steps with 6031 atoms

133.3% CPU use with 2 MPI tasks x no OpenMP threads

MPI task timing breakdown:
Section |  min time  |  avg time  |  max time  |%varavg| %total
---------------------------------------------------------------
Pair    | 0          | 0          | 0          |   0.0 |  0.00
Bond    | 0          | 0          | 0          |   0.0 |  0.00
Kspace  | 0          | 0          | 0          |   0.0 |  0.00
Neigh   | 0          | 0          | 0          |   0.0 |  0.00
Comm    | 0          | 0          | 0          |   0.0 |  0.00
Output  | 0          | 0          | 0          |   0.0 |  0.00
Modify  | 0          | 0          | 0          |   0.0 |  0.00
Other   |            | 3.75e-06   |            |       |100.00

Nlocal:    3015.5 ave 4367 max 1664 min
Histogram: 1 0 0 0 0 0 0 0 0 1
Nghost:    15848 ave 18129 max 13567 min
Histogram: 1 0 0 0 0 0 0 0 0 1
Neighs:    908518 ave 1.81485e+06 max 2185 min
Histogram: 1 0 0 0 0 0 0 0 0 1

Total # of neighbors = 1817037
Ave neighs/atom = 301.283
Ave special neighs/atom = 0.896369
Neighbor list builds = 0
Dangerous builds = 0
velocity   all scale 298.0

timestep 1.0  # fs

neigh_modify every 1 delay 0 check yes

#　制御に用いる変数(QA)
variable          step equal step #ステップ数
variable          density equal density #密度
variable          temp equal temp　#温度
variable          etotal equal etotal #総エネルギー
variable          pxx equal pxx #圧力
variable          pyy equal pyy
variable          pzz equal pzz
variable          lx equal lx　#boxの大きさ
variable          ly equal ly
variable          lz equal lz
variable          zlo equal zlo　#boxの境界
variable          zhi equal zhi
variable          xlo equal xlo
variable          xhi equal xhi
variable          ylo equal ylo
variable          yhi equal yhi
variable          pe equal pe　#ポテンシャルエネルギー

# region作成
#region top plane 0 0 100 0 0 -1 units box
#region top plane 0 0 100 0 0 -1 units lattice
#fix wall all wall/region top lj93 0.0 0.0 1.0
# Solvent(water) evapolation region setting (top 10% box region)
region evapRegion block -1 31 -1 31 89.5 99.5

# Solvent evapolation (30 atoms = 10 water molecules per 1000 steps)
#fix evp mobile evaporate 1000 30 evapRegion 49892  molecule yes

# temp of mobile
compute myTemp mobile temp
compute_modify myTemp dynamic/dof yes
thermo_style custom step temp c_myTemp pe etotal press vol atoms

# -- run protocols ---

#fix 1 mobile npt temp 298.0 298.0 100.0 iso 1.0 1.0 1000.0
# run 1000000  # 1ns
#unfix 1

#--- nvt initialization 298K/50ps
fix 1 mobile nvt temp 298.0 298.0 100.0
 run 50000  # 50ps
PPPM initialization ...
  using 12-bit tables for long-range coulomb (src/kspace.cpp:332)
WARNING: For better accuracy use 'pair_modify table 0' (src/kspace.cpp:353)
  G vector (1/distance) = 0.29
  grid = 24 24 60
  stencil order = 5
  estimated absolute RMS force accuracy = 0.00224203
  estimated relative force accuracy = 6.75181e-06
  using double precision FFTW3
  3d grid and FFT values/proc = 35557 17280
WARNING: Neighbor exclusions used with KSpace solver may give inconsistent Coulombic energies (src/neighbor.cpp:486)
SHAKE stats (type/ave/delta) on step 0
  1 1 1.25813e-10
  1 109.47 1.83078e-08
Per MPI rank memory allocation (min/avg/max) = 13.52 | 20.58 | 27.64 Mbytes
Step Temp c_myTemp PotEng TotEng Press Volume Atoms 
       0          298    375.53106    50707.819    55263.815     148203.1       104448     6031 
SHAKE stats (type/ave/delta) on step 100
  1 0.999985 0.000131895
  1 109.471 0.0144592
     100    1038.2568    2483.6804    811.31275    16684.779    20429.281       104448     6031 
SHAKE stats (type/ave/delta) on step 200
  1 0.999995 5.60931e-05
  1 109.47 0.00463071
     200    506.96413    970.63212   -2517.7848    5232.9741    9602.9664       104448     6031 
SHAKE stats (type/ave/delta) on step 300
  1 0.999997 3.03022e-05
  1 109.47 0.00307991
     300    357.55905    545.14702   -4102.3909    1364.1773    5132.0039       104448     6031 
SHAKE stats (type/ave/delta) on step 400
  1 0.999999 1.46076e-05
  1 109.47 0.00112023
     400    294.18392     364.6634    -4831.578   -333.92515    3431.2473       104448     6031 
SHAKE stats (type/ave/delta) on step 500
  1 0.999999 5.48937e-06
  1 109.47 0.000521293
     500    268.71358    292.12736   -5286.2577   -1178.0101    2361.2702       104448     6031 
SHAKE stats (type/ave/delta) on step 600
  1 1 2.349e-06
  1 109.47 0.000206706
     600    258.80988      263.923   -5529.2041   -1572.3698    1968.6777       104448     6031 
SHAKE stats (type/ave/delta) on step 700
  1 1 1.55852e-06
  1 109.47 0.00016113
     700    259.73945    266.57027   -5596.0021   -1624.9562    1951.8648       104448     6031 
SHAKE stats (type/ave/delta) on step 800
  1 1 4.54768e-06
  1 109.47 0.000367646
     800     268.5631    291.69882    -5508.689    -1402.742    1946.6464       104448     6031 
SHAKE stats (type/ave/delta) on step 900
  1 1 1.67681e-06
  1 109.47 0.000147219
     900     279.2148    322.03341   -5417.8425   -1149.0461    2066.1609       104448     6031 
SHAKE stats (type/ave/delta) on step 1000
  1 1 1.62023e-06
  1 109.47 0.00017635
    1000    277.45023    317.00816   -5414.5482   -1172.7295    1876.0349       104448     6031 
SHAKE stats (type/ave/delta) on step 1100
  1 1 2.33777e-06
  1 109.47 0.000230879
    1100    268.58176    291.75196   -5506.6106   -1400.3783    1567.1109       104448     6031 
SHAKE stats (type/ave/delta) on step 1200
  1 1 9.51213e-07
  1 109.47 8.89988e-05
    1200    263.49695    277.27113   -5568.3483   -1539.8555    1381.5151       104448     6031 
SHAKE stats (type/ave/delta) on step 1300
  1 1 1.59798e-06
  1 109.47 0.000186178
    1300    267.26413    287.99955   -5557.5549   -1471.4672    1409.0869       104448     6031 
SHAKE stats (type/ave/delta) on step 1400
  1 1 2.13285e-06
  1 109.47 0.000202697
    1400    272.32339    302.40761   -5451.5722   -1288.1357    1452.7034       104448     6031 
SHAKE stats (type/ave/delta) on step 1500
  1 1 7.71993e-07
  1 109.47 7.51162e-05
    1500    274.78367    309.41416    -5388.407   -1187.3563    1381.1107       104448     6031 
SHAKE stats (type/ave/delta) on step 1600
  1 1 1.25937e-06
  1 109.47 9.55069e-05
    1600    272.14959    301.91264   -5395.2107   -1234.4314    1275.2746       104448     6031 
SHAKE stats (type/ave/delta) on step 1700
  1 1 1.02925e-06
  1 109.47 0.000102927
    1700    268.17724    290.59994   -5424.7076   -1324.6598    1142.5915       104448     6031 
SHAKE stats (type/ave/delta) on step 1800
  1 1 6.65294e-07
  1 109.47 7.94861e-05
    1800    265.72673    283.62122   -5401.1027   -1338.5198    1151.7139       104448     6031 
SHAKE stats (type/ave/delta) on step 1900
  1 1 1.43456e-06
  1 109.47 0.000220413
    1900    270.12219    296.13891   -5370.9325   -1241.1491    1163.9416       104448     6031 
SHAKE stats (type/ave/delta) on step 2000
  1 1 1.52e-06
  1 109.47 0.000245561
    2000    274.97012    309.94513   -5303.8355   -1099.9343    1165.1815       104448     6031 
SHAKE stats (type/ave/delta) on step 2100
  1 1 7.76067e-07
  1 109.47 6.96248e-05
    2100    274.30095    308.03944   -5262.6182   -1068.9475     1170.278       104448     6031 
SHAKE stats (type/ave/delta) on step 2200
  1 1 1.03763e-06
  1 109.47 0.000107631
    2200    270.36184     296.8214   -5271.6842   -1138.2369     924.0975       104448     6031 
SHAKE stats (type/ave/delta) on step 2300
  1 1 6.57435e-07
  1 109.47 6.43758e-05
    2300    265.44226    282.81109   -5242.8847   -1184.6509    969.32938       104448     6031 
SHAKE stats (type/ave/delta) on step 2400
  1 1 1.36816e-06
  1 109.47 0.000154689
    2400    271.49201    300.03995   -5261.5946   -1110.8687    905.29578       104448     6031 
SHAKE stats (type/ave/delta) on step 2500
  1 1 1.11304e-06
  1 109.47 0.000139998
    2500     272.0178    301.53732   -5150.2996   -991.53515    1019.0757       104448     6031 
SHAKE stats (type/ave/delta) on step 2600
  1 1 6.39567e-07
  1 109.47 7.29584e-05
    2600    274.70158    309.18037   -5139.1061   -939.31049     946.1283       104448     6031 
SHAKE stats (type/ave/delta) on step 2700
  1 1 6.32336e-07
  1 109.47 6.36818e-05
    2700    269.25633    293.67303    -5082.328   -965.78251    950.60882       104448     6031 
SHAKE stats (type/ave/delta) on step 2800
  1 1 5.83836e-07
  1 109.47 6.3837e-05
    2800    271.17891     299.1483   -5126.8267   -980.88759    740.43477       104448     6031 
SHAKE stats (type/ave/delta) on step 2900
  1 1 6.94044e-07
  1 109.47 8.49156e-05
    2900    267.32828    288.18223   -5061.1315   -974.06312    921.35092       104448     6031 
SHAKE stats (type/ave/delta) on step 3000
  1 1 1.35293e-06
  1 109.47 0.000127424
    3000    270.76919    297.98145   -5044.9774   -905.30248    964.03223       104448     6031 
SHAKE stats (type/ave/delta) on step 3100
  1 1 6.11752e-07
  1 109.47 6.92701e-05
    3100    274.07231     307.3883   -5029.8052   -839.63015    866.58519       104448     6031 
SHAKE stats (type/ave/delta) on step 3200
  1 1 6.13397e-07
  1 109.47 7.19596e-05
    3200    271.70764    300.65405   -4986.9123    -832.8897     920.1135       104448     6031 
SHAKE stats (type/ave/delta) on step 3300
  1 1 5.77263e-07
  1 109.47 8.3752e-05
    3300    270.86006    298.24024   -4979.3994   -838.33512    976.68762       104448     6031 
SHAKE stats (type/ave/delta) on step 3400
  1 1 7.06645e-07
  1 109.47 8.879e-05
    3400    269.61808    294.70326   -4947.7327   -825.65649    886.72187       104448     6031 
SHAKE stats (type/ave/delta) on step 3500
  1 1 1.06075e-06
  1 109.47 0.000121972
    3500    270.78123    298.01575   -4910.3598   -770.50071    821.10446       104448     6031 
SHAKE stats (type/ave/delta) on step 3600
  1 1 1.10354e-06
  1 109.47 8.78477e-05
    3600      271.713     300.6693   -4862.1005   -707.99604    920.08422       104448     6031 
SHAKE stats (type/ave/delta) on step 3700
  1 1 7.7611e-07
  1 109.47 7.67808e-05
    3700    272.49078    302.88432   -4865.0337   -699.03801    813.95241       104448     6031 
SHAKE stats (type/ave/delta) on step 3800
  1 1 7.97986e-07
  1 109.47 7.95e-05
    3800    269.54587    294.49763   -4865.8161   -744.84385    823.11103       104448     6031 
SHAKE stats (type/ave/delta) on step 3900
  1 1 6.95918e-07
  1 109.47 7.56543e-05
    3900    267.47633    288.60384   -4843.9714   -754.63961    742.82503       104448     6031 
SHAKE stats (type/ave/delta) on step 4000
  1 1 1.1811e-06
  1 109.47 0.000130191
    4000    269.40224    294.08859    -4815.617   -696.84069    876.90918       104448     6031 
SHAKE stats (type/ave/delta) on step 4100
  1 1 7.49759e-07
  1 109.47 9.716e-05
    4100    273.37111    305.39136   -4799.4764   -620.02175    851.67699       104448     6031 
SHAKE stats (type/ave/delta) on step 4200
  1 1 7.60462e-07
  1 109.47 5.49253e-05
    4200    271.74131    300.74992   -4758.8299   -604.29267    916.71267       104448     6031 
SHAKE stats (type/ave/delta) on step 4300
  1 1 8.63789e-07
  1 109.47 6.80533e-05
    4300    269.57427    294.57849   -4762.7819   -641.37558    816.88303       104448     6031 
SHAKE stats (type/ave/delta) on step 4400
  1 1 5.259e-07
  1 109.47 6.45313e-05
    4400    268.63799    291.91209   -4770.2736   -663.18166    823.59919       104448     6031 
SHAKE stats (type/ave/delta) on step 4500
  1 1 9.41776e-07
  1 109.47 6.86788e-05
    4500    267.58439    288.91158   -4731.1894   -640.20549    839.62961       104448     6031 
SHAKE stats (type/ave/delta) on step 4600
  1 1 9.45909e-07
  1 109.47 0.000136917
    4600    272.55317    303.06198   -4734.0809   -567.13144     803.2761       104448     6031 
SHAKE stats (type/ave/delta) on step 4700
  1 1 8.90609e-07
  1 109.47 8.10956e-05
    4700    273.86106    306.78668   -4697.6085   -510.66322    888.21422       104448     6031 
SHAKE stats (type/ave/delta) on step 4800
  1 1 6.16428e-07
  1 109.47 6.88032e-05
    4800    273.53124     305.8474   -4699.4548   -517.55198    845.85391       104448     6031 
SHAKE stats (type/ave/delta) on step 4900
  1 1 5.11166e-07
  1 109.47 5.56283e-05
    4900    267.94966    289.95183   -4634.0407    -537.4723    830.76403       104448     6031 
SHAKE stats (type/ave/delta) on step 5000
  1 1 7.50579e-07
  1 109.47 0.000109167
    5000    270.31027    296.67451   -4649.6128   -516.95409    759.97377       104448     6031 
SHAKE stats (type/ave/delta) on step 5100
  1 1 8.34954e-07
  1 109.47 9.35651e-05
    5100    271.17138    299.12684   -4620.5614   -474.73752    822.77815       104448     6031 
SHAKE stats (type/ave/delta) on step 5200
  1 1 6.18265e-07
  1 109.47 8.03542e-05
    5200    270.67868    297.72371   -4593.6321   -455.34079    965.34773       104448     6031 
SHAKE stats (type/ave/delta) on step 5300
  1 1 7.53163e-07
  1 109.47 8.41781e-05
    5300    271.40841    299.80188    -4631.135   -481.68723    763.52824       104448     6031 
SHAKE stats (type/ave/delta) on step 5400
  1 1 5.10562e-07
  1 109.47 5.75346e-05
    5400    269.63028    294.73801   -4630.4204   -508.15763    825.95637       104448     6031 
SHAKE stats (type/ave/delta) on step 5500
  1 1 6.86892e-07
  1 109.47 7.44205e-05
    5500    271.53729     300.1689   -4653.9609    -502.5428    806.63141       104448     6031 
SHAKE stats (type/ave/delta) on step 5600
  1 1 6.35164e-07
  1 109.47 7.94268e-05
    5600    270.95955    298.52358    -4621.565   -478.97968    784.75884       104448     6031 
SHAKE stats (type/ave/delta) on step 5700
  1 1 6.88514e-07
  1 109.47 7.39374e-05
    5700    271.47294    299.98564   -4601.6929   -451.25855    894.07718       104448     6031 
SHAKE stats (type/ave/delta) on step 5800
  1 1 8.79228e-07
  1 109.47 9.96828e-05
    5800    268.27276    290.87197   -4528.2787   -426.77056    835.35209       104448     6031 
SHAKE stats (type/ave/delta) on step 5900
  1 1 8.37345e-07
  1 109.47 0.000110028
    5900    271.61689    300.39558   -4525.1351   -372.50002    845.61244       104448     6031 
SHAKE stats (type/ave/delta) on step 6000
  1 1 6.33624e-07
  1 109.47 8.48032e-05
    6000    274.32801    308.11648   -4532.8129   -338.72865    861.78621       104448     6031 
SHAKE stats (type/ave/delta) on step 6100
  1 1 1.08339e-06
  1 109.47 7.52751e-05
    6100    272.44223    302.74604   -4539.4717   -374.21841     792.9688       104448     6031 
SHAKE stats (type/ave/delta) on step 6200
  1 1 7.22282e-07
  1 109.47 7.71033e-05
    6200    268.05675    290.25681   -4543.3619   -445.15622    816.93238       104448     6031 
SHAKE stats (type/ave/delta) on step 6300
  1 1 7.26523e-07
  1 109.47 8.86873e-05
    6300    268.89928    292.65621   -4553.2867   -442.20001    899.97954       104448     6031 
SHAKE stats (type/ave/delta) on step 6400
  1 1 1.69235e-06
  1 109.47 0.000132688
    6400    269.88467    295.46247   -4506.9035   -380.75151    972.83545       104448     6031 
SHAKE stats (type/ave/delta) on step 6500
  1 1 6.47407e-07
  1 109.47 7.08989e-05
    6500    274.43257    308.41427   -4528.2337   -332.55082    958.05901       104448     6031 
SHAKE stats (type/ave/delta) on step 6600
  1 1 1.01006e-06
  1 109.47 0.000120244
    6600    273.11491    304.66175   -4535.0172   -359.47954    1004.9365       104448     6031 
SHAKE stats (type/ave/delta) on step 6700
  1 1 8.17701e-07
  1 109.47 8.12782e-05
    6700    268.03765     290.2024   -4535.0097   -437.09613    955.28168       104448     6031 
SHAKE stats (type/ave/delta) on step 6800
  1 1 5.52238e-07
  1 109.47 8.23698e-05
    6800    269.82105    295.28128   -4588.7783   -463.59907    825.46511       104448     6031 
SHAKE stats (type/ave/delta) on step 6900
  1 1 9.56677e-07
  1 109.47 0.000104795
    6900    272.19036    302.02876   -4585.0136   -423.61094    889.68687       104448     6031 
SHAKE stats (type/ave/delta) on step 7000
  1 1 6.35052e-07
  1 109.47 6.94359e-05
    7000    273.05695    304.49667    -4570.121   -395.46946    964.72262       104448     6031 
SHAKE stats (type/ave/delta) on step 7100
  1 1 5.85765e-07
  1 109.47 5.97155e-05
    7100    269.62609    294.72608   -4540.4282   -418.22959    962.51932       104448     6031 
SHAKE stats (type/ave/delta) on step 7200
  1 1 5.5844e-07
  1 109.47 7.26856e-05
    7200    268.24413    290.79045   -4534.8297   -433.75924    955.66124       104448     6031 
SHAKE stats (type/ave/delta) on step 7300
  1 1 7.43123e-07
  1 109.47 9.24062e-05
    7300    268.71381    292.12803   -4516.0856   -407.83439     932.1873       104448     6031 
SHAKE stats (type/ave/delta) on step 7400
  1 1 9.85354e-07
  1 109.47 0.000122796
    7400    272.41796    302.67692   -4512.9002   -348.01791    938.15125       104448     6031 
SHAKE stats (type/ave/delta) on step 7500
  1 1 5.86828e-07
  1 109.47 6.98529e-05
    7500    273.13308    304.71351   -4477.0594   -301.24383    882.58768       104448     6031 
SHAKE stats (type/ave/delta) on step 7600
  1 1 5.59589e-07
  1 109.47 6.55994e-05
    7600    270.36912    296.84211   -4443.6306   -310.07212    963.37139       104448     6031 
SHAKE stats (type/ave/delta) on step 7700
  1 1 7.13622e-07
  1 109.47 7.15669e-05
    7700    270.40173    296.93498   -4475.7742   -341.71714    846.80256       104448     6031 
SHAKE stats (type/ave/delta) on step 7800
  1 1 6.52955e-07
  1 109.47 6.42427e-05
    7800    269.79242    295.19975   -4494.2379   -369.49629    910.34102       104448     6031 
SHAKE stats (type/ave/delta) on step 7900
  1 1 4.96654e-07
  1 109.47 5.02153e-05
    7900    269.24086      293.629   -4488.5143   -372.20521    963.67619       104448     6031 
SHAKE stats (type/ave/delta) on step 8000
  1 1 5.94814e-07
  1 109.47 7.14671e-05
    8000     271.2745    299.42051   -4530.6168   -383.21637    953.64939       104448     6031 
SHAKE stats (type/ave/delta) on step 8100
  1 1 8.91337e-07
  1 109.47 8.46081e-05
    8100     271.1439     299.0486   -4567.1091   -421.70523    1031.1392       104448     6031 
SHAKE stats (type/ave/delta) on step 8200
  1 1 9.53073e-07
  1 109.47 8.88551e-05
    8200    269.69074    294.91017   -4599.7652   -476.57821     802.6125       104448     6031 
SHAKE stats (type/ave/delta) on step 8300
  1 1 5.44632e-07
  1 109.47 5.85092e-05
    8300    268.05408     290.2492   -4595.7328   -497.56797    935.27551       104448     6031 
SHAKE stats (type/ave/delta) on step 8400
  1 1 9.24564e-07
  1 109.47 0.000118833
    8400    271.13508    299.02347   -4595.6936   -450.42464    1009.0037       104448     6031 
SHAKE stats (type/ave/delta) on step 8500
  1 1 6.25946e-07
  1 109.47 7.29317e-05
    8500    272.37814    302.56354   -4571.5918   -407.31818    1090.5498       104448     6031 
SHAKE stats (type/ave/delta) on step 8600
  1 1 9.40108e-07
  1 109.47 8.68561e-05
    8600    269.98217    295.74013    -4546.877   -419.23448    1031.5595       104448     6031 
SHAKE stats (type/ave/delta) on step 8700
  1 1 5.00143e-07
  1 109.47 6.54179e-05
    8700    268.29985    290.94914    -4532.077   -430.15463    1016.7233       104448     6031 
SHAKE stats (type/ave/delta) on step 8800
  1 1 7.17978e-07
  1 109.47 9.13725e-05
    8800    272.16997     301.9707   -4550.0908   -388.99984    1022.5945       104448     6031 
SHAKE stats (type/ave/delta) on step 8900
  1 1 6.39641e-07
  1 109.47 8.29791e-05
    8900    272.82219    303.82813   -4544.6738   -373.61125    921.66284       104448     6031 
SHAKE stats (type/ave/delta) on step 9000
  1 1 8.13445e-07
  1 109.47 8.95318e-05
    9000    269.61487    294.69412   -4537.1052   -415.07814    1048.6298       104448     6031 
SHAKE stats (type/ave/delta) on step 9100
  1 1 8.59757e-07
  1 109.47 8.77586e-05
    9100    269.12523    293.29969   -4574.9444   -460.40323    1041.2191       104448     6031 
SHAKE stats (type/ave/delta) on step 9200
  1 1 7.7668e-07
  1 109.47 8.2915e-05
    9200     268.1292    290.46313   -4585.8102   -486.49689    1017.7361       104448     6031 
SHAKE stats (type/ave/delta) on step 9300
  1 1 5.25504e-07
  1 109.47 5.59605e-05
    9300    271.40661    299.79675   -4623.2508   -473.83048    978.69554       104448     6031 
SHAKE stats (type/ave/delta) on step 9400
  1 1 5.1438e-07
  1 109.47 6.571e-05
    9400    269.68987    294.90769   -4595.5504   -472.37673    933.19891       104448     6031 
SHAKE stats (type/ave/delta) on step 9500
  1 1 6.16468e-07
  1 109.47 8.81927e-05
    9500    272.75413    303.63429   -4624.2847   -454.26285    993.87435       104448     6031 
SHAKE stats (type/ave/delta) on step 9600
  1 1 7.65035e-07
  1 109.47 8.37175e-05
    9600    272.22229    302.11969   -4616.6051    -454.7143    1042.9231       104448     6031 
SHAKE stats (type/ave/delta) on step 9700
  1 1 7.01151e-07
  1 109.47 8.02237e-05
    9700    270.88317    298.30605   -4630.2051   -488.78755     987.1618       104448     6031 
SHAKE stats (type/ave/delta) on step 9800
  1 1 5.06886e-07
  1 109.47 5.79875e-05
    9800    269.73653    295.04059    -4640.076    -516.1889    968.81451       104448     6031 
SHAKE stats (type/ave/delta) on step 9900
  1 1 6.06137e-07
  1 109.47 7.45192e-05
    9900    270.89574    298.34185    -4672.977   -531.36734     1007.525       104448     6031 
SHAKE stats (type/ave/delta) on step 10000
  1 1 6.62972e-07
  1 109.47 6.68952e-05
   10000    270.54865     297.3534   -4698.5473   -562.24402    1094.1974       104448     6031 
SHAKE stats (type/ave/delta) on step 10100
  1 1 7.30807e-07
  1 109.47 6.286e-05
   10100     270.2464    296.49262   -4724.3673    -592.6851    1028.0764       104448     6031 
SHAKE stats (type/ave/delta) on step 10200
  1 1 5.38043e-07
  1 109.47 6.14081e-05
   10200    269.82211     295.2843   -4723.2836   -598.08816    995.52939       104448     6031 
SHAKE stats (type/ave/delta) on step 10300
  1 1 5.5246e-07
  1 109.47 7.61708e-05
   10300    269.47621    294.29922   -4704.9831   -585.07602    1073.2583       104448     6031 
SHAKE stats (type/ave/delta) on step 10400
  1 1 6.93708e-07
  1 109.47 8.43933e-05
   10400    274.28298    307.98826   -4743.1423   -549.74639    942.49767       104448     6031 
SHAKE stats (type/ave/delta) on step 10500
  1 1 4.91248e-07
  1 109.47 5.33699e-05
   10500    270.28232    296.59491   -4684.3664   -552.13499    1157.7569       104448     6031 
SHAKE stats (type/ave/delta) on step 10600
  1 1 5.72361e-07
  1 109.47 6.80073e-05
   10600    272.68289    303.43142   -4710.8225   -541.88974    1012.3839       104448     6031 
SHAKE stats (type/ave/delta) on step 10700
  1 1 6.24385e-07
  1 109.47 6.39623e-05
   10700    270.58554    297.45845   -4671.4511   -534.58381     1159.705       104448     6031 
SHAKE stats (type/ave/delta) on step 10800
  1 1 6.34833e-07
  1 109.47 7.01745e-05
   10800    269.88441    295.46172   -4660.2072   -534.05922    1082.4838       104448     6031 
SHAKE stats (type/ave/delta) on step 10900
  1 1 7.21599e-07
  1 109.47 0.000104084
   10900    272.25288     302.2068   -4676.7594   -514.40094    1051.8932       104448     6031 
SHAKE stats (type/ave/delta) on step 11000
  1 1 6.00952e-07
  1 109.47 7.2482e-05
   11000    269.80435    295.23374   -4627.0683   -502.14425    1175.5545       104448     6031 
SHAKE stats (type/ave/delta) on step 11100
  1 1 7.72142e-07
  1 109.47 7.08502e-05
   11100     275.1368    310.41981   -4715.6971   -509.24764    1097.4184       104448     6031 
SHAKE stats (type/ave/delta) on step 11200
  1 1 8.8816e-07
  1 109.47 8.36885e-05
   11200    267.43957    288.49915   -4657.3707   -568.60087    1127.8207       104448     6031 
SHAKE stats (type/ave/delta) on step 11300
  1 1 8.05217e-07
  1 109.47 8.01512e-05
   11300     270.0911    296.05035    -4695.555   -566.24705    939.59658       104448     6031 
SHAKE stats (type/ave/delta) on step 11400
  1 1 1.0847e-06
  1 109.47 0.000111758
   11400    269.87067    295.42259   -4646.7236   -520.78575    1036.2551       104448     6031 
SHAKE stats (type/ave/delta) on step 11500
  1 1 8.07385e-07
  1 109.47 0.000122952
   11500     271.6666    300.53717   -4621.5314   -468.13622    1275.9687       104448     6031 
SHAKE stats (type/ave/delta) on step 11600
  1 1 1.20901e-06
  1 109.47 9.79492e-05
   11600    272.19688    302.04734   -4659.9885   -498.48609     1253.945       104448     6031 
SHAKE stats (type/ave/delta) on step 11700
  1 1 1.02331e-06
  1 109.47 0.000114616
   11700    268.64762    291.93953   -4692.2846   -585.04531    1061.1586       104448     6031 
SHAKE stats (type/ave/delta) on step 11800
  1 1 8.35193e-07
  1 109.47 8.14998e-05
   11800    268.71014    292.11758   -4751.0401   -642.84505    1110.8738       104448     6031 
SHAKE stats (type/ave/delta) on step 11900
  1 1 7.96004e-07
  1 109.47 0.000105673
   11900      268.841    292.49025   -4754.2922   -644.09646    1140.1751       104448     6031 
SHAKE stats (type/ave/delta) on step 12000
  1 1 5.82668e-07
  1 109.47 8.18573e-05
   12000    272.20589      302.073   -4771.7516    -610.1115    1134.4742       104448     6031 
SHAKE stats (type/ave/delta) on step 12100
  1 1 6.64387e-07
  1 109.47 8.46439e-05
   12100    270.98382    298.59269   -4770.4725   -627.51613    1232.1556       104448     6031 
SHAKE stats (type/ave/delta) on step 12200
  1 1 7.28232e-07
  1 109.47 6.15765e-05
   12200    270.12766    296.15448    -4780.374   -650.50709    1154.7451       104448     6031 
SHAKE stats (type/ave/delta) on step 12300
  1 1 6.26961e-07
  1 109.47 6.78533e-05
   12300     268.2902    290.92163    -4753.146   -651.37131    1136.0235       104448     6031 
SHAKE stats (type/ave/delta) on step 12400
  1 1 6.61331e-07
  1 109.47 6.47804e-05
   12400    266.65847    286.27469   -4717.5111   -640.68316    1243.3648       104448     6031 
SHAKE stats (type/ave/delta) on step 12500
  1 1 7.65477e-07
  1 109.47 7.15489e-05
   12500    272.47859    302.84959    -4787.518   -621.70879    1087.9695       104448     6031 
SHAKE stats (type/ave/delta) on step 12600
  1 1 5.19156e-07
  1 109.47 5.85081e-05
   12600    272.50154    302.91496   -4786.9169    -620.7567    1096.6347       104448     6031 
SHAKE stats (type/ave/delta) on step 12700
  1 1 7.37312e-07
  1 109.47 7.19243e-05
   12700    271.33032    299.57949   -4781.4027   -633.14874      1052.33       104448     6031 
SHAKE stats (type/ave/delta) on step 12800
  1 1 7.50436e-07
  1 109.47 8.23676e-05
   12800    268.42366     291.3017   -4756.7073    -652.8922    1198.3365       104448     6031 
SHAKE stats (type/ave/delta) on step 12900
  1 1 5.9248e-07
  1 109.47 7.30858e-05
   12900    270.81824    298.12115   -4779.2111   -638.78615    1211.8958       104448     6031 
SHAKE stats (type/ave/delta) on step 13000
  1 1 7.04029e-07
  1 109.47 7.83989e-05
   13000    269.88121    295.45263   -4767.6663    -641.5672    1310.8059       104448     6031 
SHAKE stats (type/ave/delta) on step 13100
  1 1 8.35325e-07
  1 109.47 7.47974e-05
   13100    269.03646    293.04689   -4786.1234   -672.93934    1178.0924       104448     6031 
SHAKE stats (type/ave/delta) on step 13200
  1 1 7.49714e-07
  1 109.47 8.28541e-05
   13200    270.39297    296.91005   -4817.3847    -683.4615    1047.0699       104448     6031 
SHAKE stats (type/ave/delta) on step 13300
  1 1 7.3135e-07
  1 109.47 8.80581e-05
   13300     271.1191    298.97796   -4806.2347   -661.21002    1158.3576       104448     6031 
SHAKE stats (type/ave/delta) on step 13400
  1 1 6.20422e-07
  1 109.47 7.70352e-05
   13400    271.72473     300.7027   -4801.3597   -647.07592    1163.9537       104448     6031 
SHAKE stats (type/ave/delta) on step 13500
  1 1 6.53655e-07
  1 109.47 8.23581e-05
   13500    269.67102    294.85402   -4778.5194   -655.63389    1181.1126       104448     6031 
SHAKE stats (type/ave/delta) on step 13600
  1 1 6.68209e-07
  1 109.47 8.23064e-05
   13600    270.21313    296.39789   -4765.7346   -634.56087    1045.1661       104448     6031 
SHAKE stats (type/ave/delta) on step 13700
  1 1 1.15353e-06
  1 109.47 0.000100972
   13700    271.18523    299.16629   -4738.6201   -592.58446    1172.5291       104448     6031 
SHAKE stats (type/ave/delta) on step 13800
  1 1 6.03672e-07
  1 109.47 6.81979e-05
   13800    272.79495    303.75055   -4739.0138   -568.36781    1121.6237       104448     6031 
SHAKE stats (type/ave/delta) on step 13900
  1 1 1.02629e-06
  1 109.47 7.37582e-05
   13900    270.30283    296.65333     -4742.89   -610.34502    1025.9133       104448     6031 
SHAKE stats (type/ave/delta) on step 14000
  1 1 9.1451e-07
  1 109.47 8.59372e-05
   14000    271.44959    299.91916   -4826.7486   -676.67123    1070.2346       104448     6031 
SHAKE stats (type/ave/delta) on step 14100
  1 1 6.05208e-07
  1 109.47 7.87024e-05
   14100    267.84914    289.66557   -4802.7732   -707.74161    977.06785       104448     6031 
SHAKE stats (type/ave/delta) on step 14200
  1 1 1.30077e-06
  1 109.47 0.000136538
   14200    269.24806    293.64949   -4780.5428    -664.1237    1066.2061       104448     6031 
SHAKE stats (type/ave/delta) on step 14300
  1 1 6.08814e-07
  1 109.47 9.47716e-05
   14300    272.58814    303.16158   -4769.0368   -601.55269    1187.7389       104448     6031 
SHAKE stats (type/ave/delta) on step 14400
  1 1 6.02484e-07
  1 109.47 6.91007e-05
   14400     270.0613    295.96549   -4734.2385   -605.38616    1176.5377       104448     6031 
SHAKE stats (type/ave/delta) on step 14500
  1 1 6.70464e-07
  1 109.47 6.67881e-05
   14500    267.53978    288.78455   -4722.6538   -632.35189    1042.9425       104448     6031 
SHAKE stats (type/ave/delta) on step 14600
  1 1 5.94942e-07
  1 109.47 7.14465e-05
   14600    269.79103     295.1958   -4753.7148   -628.99447    969.26631       104448     6031 
SHAKE stats (type/ave/delta) on step 14700
  1 1 1.31225e-06
  1 109.47 9.39758e-05
   14700    271.75113    300.77788    -4749.653   -594.96556    1104.9009       104448     6031 
SHAKE stats (type/ave/delta) on step 14800
  1 1 7.23157e-07
  1 109.47 6.94667e-05
   14800    274.74597    309.30677   -4762.9388   -562.46455    1002.2192       104448     6031 
SHAKE stats (type/ave/delta) on step 14900
  1 1 8.73094e-07
  1 109.47 8.30944e-05
   14900     274.3767    308.25514   -4776.1105   -581.28189    987.10321       104448     6031 
SHAKE stats (type/ave/delta) on step 15000
  1 1 7.64664e-07
  1 109.47 7.60558e-05
   15000     268.9323    292.75025   -4734.7794   -623.18782    1035.6043       104448     6031 
SHAKE stats (type/ave/delta) on step 15100
  1 1 5.40378e-07
  1 109.47 6.93172e-05
   15100    269.90918    295.53227    -4749.593   -623.06632    1020.6521       104448     6031 
SHAKE stats (type/ave/delta) on step 15200
  1 1 7.47871e-07
  1 109.47 8.52316e-05
   15200    270.07301    295.99885   -4725.7786   -596.74714    1046.7098       104448     6031 
SHAKE stats (type/ave/delta) on step 15300
  1 1 6.6465e-07
  1 109.47 7.17224e-05
   15300     271.1423    299.04404   -4716.9344   -571.55501    1059.9948       104448     6031 
SHAKE stats (type/ave/delta) on step 15400
  1 1 5.55508e-07
  1 109.47 8.16162e-05
   15400    271.25868    299.37548   -4709.7188   -562.56015    1018.9714       104448     6031 
SHAKE stats (type/ave/delta) on step 15500
  1 1 9.21396e-07
  1 109.47 7.7577e-05
   15500    271.39878    299.77445   -4727.0055   -577.70497    1068.5117       104448     6031 
SHAKE stats (type/ave/delta) on step 15600
  1 1 7.76881e-07
  1 109.47 6.13045e-05
   15600     270.3629    296.82439    -4756.456   -622.99271    1041.3465       104448     6031 
SHAKE stats (type/ave/delta) on step 15700
  1 1 6.09819e-07
  1 109.47 6.81412e-05
   15700    268.44216    291.35439   -4747.8136   -643.71565    1065.8219       104448     6031 
SHAKE stats (type/ave/delta) on step 15800
  1 1 8.08429e-07
  1 109.47 9.59272e-05
   15800    269.45775    294.24667   -4749.9563   -630.33136    1142.5971       104448     6031 
SHAKE stats (type/ave/delta) on step 15900
  1 1 9.03215e-07
  1 109.47 0.000112482
   15900    270.18508      296.318   -4717.3203    -586.5755    1126.0347       104448     6031 
SHAKE stats (type/ave/delta) on step 16000
  1 1 4.84969e-07
  1 109.47 7.01916e-05
   16000    274.70879     309.2009   -4747.7167    -547.8108     1211.438       104448     6031 
SHAKE stats (type/ave/delta) on step 16100
  1 1 1.01533e-06
  1 109.47 8.69043e-05
   16100    268.64132    291.92159   -4686.5524   -579.40943    1067.6096       104448     6031 
SHAKE stats (type/ave/delta) on step 16200
  1 1 5.76539e-07
  1 109.47 6.43054e-05
   16200    268.24906    290.80447   -4710.4954   -609.34962    1014.4501       104448     6031 
SHAKE stats (type/ave/delta) on step 16300
  1 1 8.81236e-07
  1 109.47 8.53091e-05
   16300    270.29714    296.63712   -4711.6648   -579.20683      918.899       104448     6031 
SHAKE stats (type/ave/delta) on step 16400
  1 1 7.09518e-07
  1 109.47 9.56837e-05
   16400    274.03777    307.28992   -4722.2854   -532.63854    1059.7584       104448     6031 
SHAKE stats (type/ave/delta) on step 16500
  1 1 7.63956e-07
  1 109.47 7.98064e-05
   16500    273.54668    305.89137   -4726.1122   -543.97338    1099.0174       104448     6031 
SHAKE stats (type/ave/delta) on step 16600
  1 1 1.50006e-06
  1 109.47 0.000117856
   16600    270.62012    297.55692   -4753.3429   -615.94702    964.87528       104448     6031 
SHAKE stats (type/ave/delta) on step 16700
  1 1 6.04537e-07
  1 109.47 5.45517e-05
   16700    269.11956    293.28355   -4775.9303    -661.4758     1006.329       104448     6031 
SHAKE stats (type/ave/delta) on step 16800
  1 1 1.48143e-06
  1 109.47 0.000163108
   16800    269.37734    294.01768   -4738.8549   -620.45923    967.61812       104448     6031 
SHAKE stats (type/ave/delta) on step 16900
  1 1 8.87707e-07
  1 109.47 0.000124416
   16900    272.97362    304.25936   -4702.2665   -528.88901    1174.9149       104448     6031 
SHAKE stats (type/ave/delta) on step 17000
  1 1 7.68862e-07
  1 109.47 6.13023e-05
   17000    270.64459    297.62661   -4650.6671   -512.89708      1054.26       104448     6031 
SHAKE stats (type/ave/delta) on step 17100
  1 1 9.49099e-07
  1 109.47 9.09919e-05
   17100    268.60691    291.82357   -4673.0247   -566.40791    967.89842       104448     6031 
SHAKE stats (type/ave/delta) on step 17200
  1 1 5.29904e-07
  1 109.47 6.84642e-05
   17200    269.51176    294.40047   -4723.0449   -602.59427    899.45639       104448     6031 
SHAKE stats (type/ave/delta) on step 17300
  1 1 7.02773e-07
  1 109.47 7.13666e-05
   17300    268.96717    292.84957   -4699.1136   -586.98882    1065.0542       104448     6031 
SHAKE stats (type/ave/delta) on step 17400
  1 1 6.80317e-07
  1 109.47 8.94967e-05
   17400    270.73946    297.89679   -4679.6067   -540.38619    1036.7396       104448     6031 
SHAKE stats (type/ave/delta) on step 17500
  1 1 6.18041e-07
  1 109.47 7.06984e-05
   17500    272.03896    301.59758   -4683.5103   -524.42241    1043.3647       104448     6031 
SHAKE stats (type/ave/delta) on step 17600
  1 1 7.76898e-07
  1 109.47 7.70969e-05
   17600    271.79564    300.90464   -4703.8893    -548.5214    1027.1547       104448     6031 
SHAKE stats (type/ave/delta) on step 17700
  1 1 7.03224e-07
  1 109.47 7.99272e-05
   17700     270.7258     297.8579   -4712.9196   -573.90787    979.30502       104448     6031 
SHAKE stats (type/ave/delta) on step 17800
  1 1 6.67616e-07
  1 109.47 8.2469e-05
   17800    268.80293    292.38184   -4675.7823   -566.16857    1099.6853       104448     6031 
SHAKE stats (type/ave/delta) on step 17900
  1 1 8.91458e-07
  1 109.47 9.84358e-05
   17900    269.87606    295.43795    -4652.252   -526.23167    953.03809       104448     6031 
SHAKE stats (type/ave/delta) on step 18000
  1 1 7.08111e-07
  1 109.47 7.91283e-05
   18000    270.32509    296.71673   -4628.1022   -495.21688    1051.4127       104448     6031 
SHAKE stats (type/ave/delta) on step 18100
  1 1 8.32707e-07
  1 109.47 7.91727e-05
   18100    271.71723    300.68134   -4645.9505   -491.78142    930.25142       104448     6031 
SHAKE stats (type/ave/delta) on step 18200
  1 1 8.90518e-07
  1 109.47 7.26041e-05
   18200    269.46334    294.26259     -4644.11   -524.39955    925.00196       104448     6031 
SHAKE stats (type/ave/delta) on step 18300
  1 1 7.56743e-07
  1 109.47 5.96003e-05
   18300    269.65365    294.80457   -4671.4466   -548.82657    883.30197       104448     6031 
SHAKE stats (type/ave/delta) on step 18400
  1 1 5.92533e-07
  1 109.47 7.85665e-05
   18400    271.34102    299.60997   -4702.5248   -554.10726    828.23397       104448     6031 
SHAKE stats (type/ave/delta) on step 18500
  1 1 7.37912e-07
  1 109.47 7.85015e-05
   18500    270.13447    296.17387   -4657.3545   -527.38345    1047.4461       104448     6031 
SHAKE stats (type/ave/delta) on step 18600
  1 1 6.38686e-07
  1 109.47 9.04409e-05
   18600     270.5577    297.37916   -4629.9111   -493.46955    1158.4586       104448     6031 
SHAKE stats (type/ave/delta) on step 18700
  1 1 6.50677e-07
  1 109.47 7.45128e-05
   18700    271.64983     300.4894   -4637.7995    -484.6608    1001.7969       104448     6031 
SHAKE stats (type/ave/delta) on step 18800
  1 1 7.54128e-07
  1 109.47 8.34239e-05
   18800    272.18554    302.01503   -4664.0475   -502.71849    883.13971       104448     6031 
SHAKE stats (type/ave/delta) on step 18900
  1 1 6.70017e-07
  1 109.47 7.18178e-05
   18900    269.38019    294.02579   -4644.7263   -526.28708    883.19456       104448     6031 
SHAKE stats (type/ave/delta) on step 19000
  1 1 5.56204e-07
  1 109.47 7.65592e-05
   19000     270.2795    296.58688   -4664.4017   -532.21343    958.50413       104448     6031 
SHAKE stats (type/ave/delta) on step 19100
  1 1 7.59443e-07
  1 109.47 0.000106505
   19100      270.936    298.45651   -4651.6873   -509.46205    986.56783       104448     6031 
SHAKE stats (type/ave/delta) on step 19200
  1 1 5.34e-07
  1 109.47 7.23879e-05
   19200    271.62584    300.42109   -4653.9096    -501.1376    965.55565       104448     6031 
SHAKE stats (type/ave/delta) on step 19300
  1 1 5.95528e-07
  1 109.47 8.48883e-05
   19300    270.58565    297.45878   -4655.0761   -518.20707    962.74605       104448     6031 
SHAKE stats (type/ave/delta) on step 19400
  1 1 5.5605e-07
  1 109.47 8.09906e-05
   19400    269.00074    292.94517   -4637.8191   -525.18107    971.64511       104448     6031 
SHAKE stats (type/ave/delta) on step 19500
  1 1 6.04873e-07
  1 109.47 8.4777e-05
   19500    270.90439    298.36648   -4661.6578   -519.91582    1011.5719       104448     6031 
SHAKE stats (type/ave/delta) on step 19600
  1 1 7.61233e-07
  1 109.47 7.34122e-05
   19600    270.91667    298.40146   -4668.6784   -526.74864    993.19134       104448     6031 
SHAKE stats (type/ave/delta) on step 19700
  1 1 7.32202e-07
  1 109.47 8.88047e-05
   19700    270.73253    297.87706   -4663.3218   -524.20722    1051.8524       104448     6031 
SHAKE stats (type/ave/delta) on step 19800
  1 1 7.45647e-07
  1 109.47 8.19758e-05
   19800    273.07964    304.56131    -4698.114   -523.11546    1028.6329       104448     6031 
SHAKE stats (type/ave/delta) on step 19900
  1 1 6.33535e-07
  1 109.47 8.0708e-05
   19900    270.15398    296.22943   -4684.4555   -554.18616    963.23774       104448     6031 
SHAKE stats (type/ave/delta) on step 20000
  1 1 8.46674e-07
  1 109.47 8.36587e-05
   20000    267.32063    288.16043   -4624.6252   -537.67382    991.67604       104448     6031 
SHAKE stats (type/ave/delta) on step 20100
  1 1 1.11562e-06
  1 109.47 0.000120767
   20100    272.59663    303.18577   -4636.5988   -468.98482    1031.4662       104448     6031 
SHAKE stats (type/ave/delta) on step 20200
  1 1 6.31718e-07
  1 109.47 7.64726e-05
   20200    274.24312    307.87473   -4638.0222   -445.23581    1044.9363       104448     6031 
SHAKE stats (type/ave/delta) on step 20300
  1 1 9.86874e-07
  1 109.47 9.34051e-05
   20300    268.55443    291.67413   -4612.0216   -506.20715    912.43886       104448     6031 
SHAKE stats (type/ave/delta) on step 20400
  1 1 5.74011e-07
  1 109.47 5.07032e-05
   20400    267.61922    289.01078   -4642.1488   -550.63237    867.02539       104448     6031 
SHAKE stats (type/ave/delta) on step 20500
  1 1 1.16611e-06
  1 109.47 0.000109031
   20500    270.39172    296.90649   -4645.8961   -511.99204    900.48555       104448     6031 
SHAKE stats (type/ave/delta) on step 20600
  1 1 1.24616e-06
  1 109.47 0.000105724
   20600    275.15969    310.48499   -4637.5375   -430.73806    954.80196       104448     6031 
SHAKE stats (type/ave/delta) on step 20700
  1 1 6.15476e-07
  1 109.47 7.69101e-05
   20700    272.99922    304.33229   -4571.1659   -397.39683    934.68529       104448     6031 
SHAKE stats (type/ave/delta) on step 20800
  1 1 1.35371e-06
  1 109.47 8.73845e-05
   20800    271.46792    299.97135   -4592.2022   -441.84466    999.50407       104448     6031 
SHAKE stats (type/ave/delta) on step 20900
  1 1 7.88399e-07
  1 109.47 7.43818e-05
   20900    271.11573    298.96837   -4634.3201   -489.34699    1083.9992       104448     6031 
SHAKE stats (type/ave/delta) on step 21000
  1 1 7.40855e-07
  1 109.47 8.08176e-05
   21000    270.74577    297.91477   -4628.0114   -488.69444    1061.5796       104448     6031 
SHAKE stats (type/ave/delta) on step 21100
  1 1 6.36838e-07
  1 109.47 5.97531e-05
   21100    271.31635    299.53969   -4636.0474   -488.00709    1028.9235       104448     6031 
SHAKE stats (type/ave/delta) on step 21200
  1 1 5.65693e-07
  1 109.47 6.58162e-05
   21200    270.75461    297.93993   -4633.3179   -493.86582    857.57913       104448     6031 
SHAKE stats (type/ave/delta) on step 21300
  1 1 6.13122e-07
  1 109.47 6.98677e-05
   21300    270.14207     296.1955   -4624.5053   -494.41815    937.40191       104448     6031 
SHAKE stats (type/ave/delta) on step 21400
  1 1 7.00012e-07
  1 109.47 8.52906e-05
   21400    269.86455    295.40516   -4603.5033   -477.65897     968.6324       104448     6031 
SHAKE stats (type/ave/delta) on step 21500
  1 1 8.35e-07
  1 109.47 9.01983e-05
   21500    273.50575     305.7748   -4622.8931   -441.38007    1043.4415       104448     6031 
SHAKE stats (type/ave/delta) on step 21600
  1 1 6.6706e-07
  1 109.47 7.89607e-05
   21600    272.47494    302.83919   -4606.4063   -440.65282    1029.3437       104448     6031 
SHAKE stats (type/ave/delta) on step 21700
  1 1 9.22841e-07
  1 109.47 8.46681e-05
   21700    269.16704    293.41877   -4602.2533   -487.07287      1071.11       104448     6031 
SHAKE stats (type/ave/delta) on step 21800
  1 1 4.54968e-07
  1 109.47 5.56e-05
   21800    269.72674     295.0127    -4637.618   -513.88064    880.23828       104448     6031 
SHAKE stats (type/ave/delta) on step 21900
  1 1 7.05602e-07
  1 109.47 8.88839e-05
   21900    269.16602    293.41586   -4616.5565    -501.3916    979.13309       104448     6031 
SHAKE stats (type/ave/delta) on step 22000
  1 1 7.0448e-07
  1 109.47 7.69302e-05
   22000    268.61412    291.84412   -4577.6215   -470.89438     1022.905       104448     6031 
SHAKE stats (type/ave/delta) on step 22100
  1 1 7.56523e-07
  1 109.47 8.55483e-05
   22100    272.76482    303.66474   -4636.9211    -466.7357     926.1862       104448     6031 
SHAKE stats (type/ave/delta) on step 22200
  1 1 1.07699e-06
  1 109.47 9.45727e-05
   22200    270.80758     298.0908   -4651.7537   -511.49177    927.98033       104448     6031 
SHAKE stats (type/ave/delta) on step 22300
  1 1 8.76503e-07
  1 109.47 7.4153e-05
   22300    271.55194    300.21062   -4715.2415   -563.59941    1004.5118       104448     6031 
SHAKE stats (type/ave/delta) on step 22400
  1 1 7.79906e-07
  1 109.47 7.51465e-05
   22400    268.47191    291.43912   -4700.2562   -595.70337    981.24731       104448     6031 
SHAKE stats (type/ave/delta) on step 22500
  1 1 1.03869e-06
  1 109.47 0.000120657
   22500    268.60763    291.82563   -4669.8853   -563.25752    983.10102       104448     6031 
SHAKE stats (type/ave/delta) on step 22600
  1 1 1.17296e-06
  1 109.47 0.000148398
   22600    274.14025    307.58177   -4682.9424   -491.72872    1054.3872       104448     6031 
SHAKE stats (type/ave/delta) on step 22700
  1 1 5.77104e-07
  1 109.47 6.76113e-05
   22700    271.66672    300.53751   -4616.9567   -463.55969     1082.657       104448     6031 
SHAKE stats (type/ave/delta) on step 22800
  1 1 9.18661e-07
  1 109.47 9.34545e-05
   22800    270.98308    298.59058    -4636.609     -493.664    971.05101       104448     6031 
SHAKE stats (type/ave/delta) on step 22900
  1 1 5.10373e-07
  1 109.47 6.67973e-05
   22900    269.59989    294.65146   -4647.6866   -525.88846    839.08266       104448     6031 
SHAKE stats (type/ave/delta) on step 23000
  1 1 6.69813e-07
  1 109.47 0.000107175
   23000    267.42554    288.45922   -4595.5677   -507.01223    952.65667       104448     6031 
SHAKE stats (type/ave/delta) on step 23100
  1 1 6.64505e-07
  1 109.47 6.78101e-05
   23100    271.87487     301.1303   -4624.6935   -468.11414    1041.7974       104448     6031 
SHAKE stats (type/ave/delta) on step 23200
  1 1 5.98128e-07
  1 109.47 6.99276e-05
   23200    270.14579    296.20609   -4599.9551   -469.81105    927.84972       104448     6031 
SHAKE stats (type/ave/delta) on step 23300
  1 1 5.8038e-07
  1 109.47 5.71688e-05
   23300    270.94313    298.47683   -4620.8196   -478.48525    909.25203       104448     6031 
SHAKE stats (type/ave/delta) on step 23400
  1 1 7.57541e-07
  1 109.47 6.5282e-05
   23400    272.55065    303.05483   -4665.1163   -498.20528    962.33663       104448     6031 
SHAKE stats (type/ave/delta) on step 23500
  1 1 8.43627e-07
  1 109.47 7.70215e-05
   23500    268.41856     291.2872   -4644.8408   -541.10354    990.48324       104448     6031 
SHAKE stats (type/ave/delta) on step 23600
  1 1 6.31919e-07
  1 109.47 7.62468e-05
   23600    267.91816    289.86211   -4648.0462   -551.95942    1006.3132       104448     6031 
SHAKE stats (type/ave/delta) on step 23700
  1 1 7.99208e-07
  1 109.47 8.07942e-05
   23700    269.84441    295.34781   -4641.3549   -515.81852    984.88315       104448     6031 
SHAKE stats (type/ave/delta) on step 23800
  1 1 1.01941e-06
  1 109.47 8.77453e-05
   23800     274.2579    307.91684   -4658.3773   -465.36489    853.37277       104448     6031 
SHAKE stats (type/ave/delta) on step 23900
  1 1 6.19985e-07
  1 109.47 8.53994e-05
   23900    272.88354    304.00283   -4633.4347   -461.43442    1007.6811       104448     6031 
SHAKE stats (type/ave/delta) on step 24000
  1 1 8.22759e-07
  1 109.47 7.20062e-05
   24000    272.29065    302.31438   -4661.6465   -498.71048    1085.2089       104448     6031 
SHAKE stats (type/ave/delta) on step 24100
  1 1 1.33562e-06
  1 109.47 7.78601e-05
   24100    269.17202    293.43295   -4679.8224   -564.56583    970.66979       104448     6031 
SHAKE stats (type/ave/delta) on step 24200
  1 1 6.96957e-07
  1 109.47 8.27298e-05
   24200    269.51627    294.41332   -4707.5902   -587.07055    970.43244       104448     6031 
SHAKE stats (type/ave/delta) on step 24300
  1 1 6.34687e-07
  1 109.47 7.56766e-05
   24300    271.46831    299.97246   -4726.1148   -575.75128    1015.5092       104448     6031 
SHAKE stats (type/ave/delta) on step 24400
  1 1 6.42046e-07
  1 109.47 8.18002e-05
   24400     268.1081    290.40305   -4674.2028   -575.21205    1148.2006       104448     6031 
SHAKE stats (type/ave/delta) on step 24500
  1 1 7.25672e-07
  1 109.47 7.12746e-05
   24500     268.6314    291.89332   -4676.9038   -569.91263    1170.8393       104448     6031 
SHAKE stats (type/ave/delta) on step 24600
  1 1 6.55125e-07
  1 109.47 6.69057e-05
   24600    274.19612    307.74089   -4756.0369   -563.96899    923.92875       104448     6031 
SHAKE stats (type/ave/delta) on step 24700
  1 1 5.91225e-07
  1 109.47 6.76062e-05
   24700    269.40564    294.09826   -4713.4115    -594.5832    954.91187       104448     6031 
SHAKE stats (type/ave/delta) on step 24800
  1 1 6.94817e-07
  1 109.47 6.17588e-05
   24800    269.87537    295.43599   -4736.1791   -610.16926    1137.5464       104448     6031 
SHAKE stats (type/ave/delta) on step 24900
  1 1 6.55315e-07
  1 109.47 9.25622e-05
   24900    268.50996     291.5475   -4721.4148   -616.28017    1072.5522       104448     6031 
SHAKE stats (type/ave/delta) on step 25000
  1 1 6.07945e-07
  1 109.47 7.40412e-05
   25000    270.02631    295.86584   -4724.7751   -596.45763     1013.437       104448     6031 
SHAKE stats (type/ave/delta) on step 25100
  1 1 7.1684e-07
  1 109.47 9.34923e-05
   25100    269.48599     294.3271   -4684.7327    -564.6759    1092.0809       104448     6031 
SHAKE stats (type/ave/delta) on step 25200
  1 1 6.77959e-07
  1 109.47 7.85139e-05
   25200    271.20889    299.23367   -4692.6993   -546.30189    911.04327       104448     6031 
SHAKE stats (type/ave/delta) on step 25300
  1 1 6.56457e-07
  1 109.47 7.26793e-05
   25300    271.89647    301.19181   -4694.3602   -537.45061    860.99768       104448     6031 
SHAKE stats (type/ave/delta) on step 25400
  1 1 6.63529e-07
  1 109.47 5.97242e-05
   25400      273.068    304.52816   -4717.2245   -542.40392    1020.2235       104448     6031 
SHAKE stats (type/ave/delta) on step 25500
  1 1 6.81164e-07
  1 109.47 8.69897e-05
   25500    270.35393    296.79886   -4702.1101   -568.78381     1068.446       104448     6031 
SHAKE stats (type/ave/delta) on step 25600
  1 1 5.20598e-07
  1 109.47 7.82027e-05
   25600    270.87522    298.28342   -4732.9033   -591.60727    957.74826       104448     6031 
SHAKE stats (type/ave/delta) on step 25700
  1 1 6.17375e-07
  1 109.47 7.48363e-05
   25700    273.64067    306.15905   -4773.6579     -590.082    759.08143       104448     6031 
SHAKE stats (type/ave/delta) on step 25800
  1 1 8.28433e-07
  1 109.47 7.66107e-05
   25800    270.65472    297.65547   -4715.8738   -577.94888    946.68869       104448     6031 
SHAKE stats (type/ave/delta) on step 25900
  1 1 6.6906e-07
  1 109.47 7.43175e-05
   25900    274.37796    308.25873   -4733.7436   -538.89565    1062.8785       104448     6031 
SHAKE stats (type/ave/delta) on step 26000
  1 1 8.5401e-07
  1 109.47 8.90673e-05
   26000    274.18722    307.71553   -4732.1635   -540.23176    1177.1478       104448     6031 
SHAKE stats (type/ave/delta) on step 26100
  1 1 8.86892e-07
  1 109.47 9.68529e-05
   26100     269.8195    295.27689   -4727.2805    -602.1249     983.6051       104448     6031 
SHAKE stats (type/ave/delta) on step 26200
  1 1 7.29489e-07
  1 109.47 5.98526e-05
   26200     269.5596    294.53671   -4754.5604   -633.37835    856.83944       104448     6031 
SHAKE stats (type/ave/delta) on step 26300
  1 1 1.11153e-06
  1 109.47 8.64394e-05
   26300     270.2857    296.60454   -4734.4134    -602.1303    907.65845       104448     6031 
SHAKE stats (type/ave/delta) on step 26400
  1 1 8.38623e-07
  1 109.47 9.41746e-05
   26400    275.55584    311.61318   -4745.4009   -532.54482    1062.7022       104448     6031 
SHAKE stats (type/ave/delta) on step 26500
  1 1 5.86979e-07
  1 109.47 7.66789e-05
   26500    273.50812    305.78157   -4699.3625   -517.81309     1097.259       104448     6031 
SHAKE stats (type/ave/delta) on step 26600
  1 1 9.95916e-07
  1 109.47 9.82403e-05
   26600    271.16912     299.1204   -4709.1141   -563.32485    1024.6444       104448     6031 
SHAKE stats (type/ave/delta) on step 26700
  1 1 1.3576e-06
  1 109.47 0.000120642
   26700    268.65422    291.95833   -4754.1691   -646.82889    936.92212       104448     6031 
SHAKE stats (type/ave/delta) on step 26800
  1 1 8.4165e-07
  1 109.47 6.70168e-05
   26800    268.41712    291.28309   -4799.7065   -695.99131     945.9992       104448     6031 
SHAKE stats (type/ave/delta) on step 26900
  1 1 9.34375e-07
  1 109.47 0.00012901
   26900    267.61891    289.00991   -4770.9062   -679.39439    979.12189       104448     6031 
SHAKE stats (type/ave/delta) on step 27000
  1 1 1.51305e-06
  1 109.47 0.000156008
   27000     271.8164    300.96376   -4752.6269   -596.94156    1098.9259       104448     6031 
SHAKE stats (type/ave/delta) on step 27100
  1 1 5.58486e-07
  1 109.47 6.92023e-05
   27100    273.89151    306.87339   -4736.6621   -549.25137    1154.4704       104448     6031 
SHAKE stats (type/ave/delta) on step 27200
  1 1 1.27778e-06
  1 109.47 0.00010139
   27200    270.26058      296.533    -4724.537   -592.63795    1066.2293       104448     6031 
SHAKE stats (type/ave/delta) on step 27300
  1 1 8.41857e-07
  1 109.47 7.23533e-05
   27300      269.634     294.7486   -4776.6061   -654.28649     961.9438       104448     6031 
SHAKE stats (type/ave/delta) on step 27400
  1 1 8.90442e-07
  1 109.47 9.68591e-05
   27400    267.19102    287.79131    -4747.125   -662.15523    965.72711       104448     6031 
SHAKE stats (type/ave/delta) on step 27500
  1 1 1.11375e-06
  1 109.47 0.000147396
   27500    270.45403    297.08394   -4723.9854   -589.12872    1014.0925       104448     6031 
SHAKE stats (type/ave/delta) on step 27600
  1 1 6.56047e-07
  1 109.47 8.97249e-05
   27600    274.74534    309.30499    -4726.757   -526.29233    1180.0019       104448     6031 
SHAKE stats (type/ave/delta) on step 27700
  1 1 1.02812e-06
  1 109.47 0.000114165
   27700    271.43791    299.88588   -4733.1712   -583.27244    1002.4662       104448     6031 
SHAKE stats (type/ave/delta) on step 27800
  1 1 7.6924e-07
  1 109.47 7.17974e-05
   27800    267.21027    287.84615    -4740.427   -655.16282    1086.5771       104448     6031 
SHAKE stats (type/ave/delta) on step 27900
  1 1 6.49471e-07
  1 109.47 7.66002e-05
   27900    269.07065    293.14425   -4789.7939   -676.08715    1166.2169       104448     6031 
SHAKE stats (type/ave/delta) on step 28000
  1 1 6.46404e-07
  1 109.47 8.55162e-05
   28000    271.31848    299.54577   -4813.4912   -665.41827    987.14137       104448     6031 
SHAKE stats (type/ave/delta) on step 28100
  1 1 6.71582e-07
  1 109.47 0.00010895
   28100     270.9299    298.43914   -4794.0245   -651.89253    954.65755       104448     6031 
SHAKE stats (type/ave/delta) on step 28200
  1 1 5.78993e-07
  1 109.47 5.88428e-05
   28200    269.00165    292.94777   -4749.2833   -636.63139    922.21482       104448     6031 
SHAKE stats (type/ave/delta) on step 28300
  1 1 5.9669e-07
  1 109.47 7.77608e-05
   28300    272.81124    303.79693   -4783.5304   -612.63538    1006.7188       104448     6031 
SHAKE stats (type/ave/delta) on step 28400
  1 1 6.67519e-07
  1 109.47 7.73849e-05
   28400    274.29655    308.02689   -4807.9617   -614.35843    1020.9995       104448     6031 
SHAKE stats (type/ave/delta) on step 28500
  1 1 8.15318e-07
  1 109.47 7.86809e-05
   28500    270.32094    296.70489   -4786.8458   -654.02398    1228.1798       104448     6031 
SHAKE stats (type/ave/delta) on step 28600
  1 1 9.04388e-07
  1 109.47 8.47768e-05
   28600    268.83354    292.46899   -4808.5103   -698.42862    1121.2077       104448     6031 
SHAKE stats (type/ave/delta) on step 28700
  1 1 8.2128e-07
  1 109.47 8.27747e-05
   28700    269.62096    294.71145   -4834.5822   -712.46208    1160.3709       104448     6031 
SHAKE stats (type/ave/delta) on step 28800
  1 1 8.63599e-07
  1 109.47 9.1879e-05
   28800    269.61862     294.7048   -4812.6146    -690.5302    1033.3501       104448     6031 
SHAKE stats (type/ave/delta) on step 28900
  1 1 1.03789e-06
  1 109.47 9.38577e-05
   28900    269.68403    294.89107   -4770.9739   -647.88944    1127.7012       104448     6031 
SHAKE stats (type/ave/delta) on step 29000
  1 1 6.33045e-07
  1 109.47 7.22546e-05
   29000    273.91715    306.94642   -4795.0263   -607.22343    1091.1812       104448     6031 
SHAKE stats (type/ave/delta) on step 29100
  1 1 7.0292e-07
  1 109.47 9.02085e-05
   29100    272.41301    302.66284   -4766.6561   -601.84937    1151.1173       104448     6031 
SHAKE stats (type/ave/delta) on step 29200
  1 1 9.98154e-07
  1 109.47 0.000107091
   29200    271.85957    301.08671    -4800.884   -644.53868    1085.6145       104448     6031 
SHAKE stats (type/ave/delta) on step 29300
  1 1 6.78452e-07
  1 109.47 8.026e-05
   29300    267.39754    288.37946   -4793.1293   -705.00203    1120.3605       104448     6031 
SHAKE stats (type/ave/delta) on step 29400
  1 1 6.87991e-07
  1 109.47 8.43617e-05
   29400    270.82194    298.13169   -4855.3744   -714.89292    1057.8496       104448     6031 
SHAKE stats (type/ave/delta) on step 29500
  1 1 7.11418e-07
  1 109.47 7.03681e-05
   29500     270.7674    297.97637   -4846.3198    -706.6722    1063.0129       104448     6031 
SHAKE stats (type/ave/delta) on step 29600
  1 1 7.23298e-07
  1 109.47 8.07631e-05
   29600    270.55042    297.35843    -4830.177   -693.84671     1181.875       104448     6031 
SHAKE stats (type/ave/delta) on step 29700
  1 1 6.113e-07
  1 109.47 8.0006e-05
   29700    268.96473     292.8426   -4776.6859    -664.5986    1085.6954       104448     6031 
SHAKE stats (type/ave/delta) on step 29800
  1 1 8.12386e-07
  1 109.47 0.000105856
   29800    270.56565    297.40182   -4757.0365   -620.47331    1019.8504       104448     6031 
SHAKE stats (type/ave/delta) on step 29900
  1 1 7.04564e-07
  1 109.47 8.21342e-05
   29900    273.19471    304.88901   -4757.4461   -580.68836    1123.6378       104448     6031 
SHAKE stats (type/ave/delta) on step 30000
  1 1 8.09864e-07
  1 109.47 8.24483e-05
   30000     274.0198    307.23875   -4773.8152     -584.443    1086.3592       104448     6031 
SHAKE stats (type/ave/delta) on step 30100
  1 1 1.11425e-06
  1 109.47 9.69943e-05
   30100    270.78819    298.03558   -4799.1696   -659.20405     1129.309       104448     6031 
SHAKE stats (type/ave/delta) on step 30200
  1 1 9.36084e-07
  1 109.47 9.54204e-05
   30200    267.68366    289.19429   -4820.0397   -727.53809    957.20103       104448     6031 
SHAKE stats (type/ave/delta) on step 30300
  1 1 8.3098e-07
  1 109.47 0.000111856
   30300    267.27191     288.0217   -4811.9804   -725.77383     1039.699       104448     6031 
SHAKE stats (type/ave/delta) on step 30400
  1 1 1.18977e-06
  1 109.47 0.000125124
   30400    268.10618    290.39759   -4747.0665   -648.10506    1118.2329       104448     6031 
SHAKE stats (type/ave/delta) on step 30500
  1 1 7.25407e-07
  1 109.47 9.13214e-05
   30500    276.54799    314.43869   -4775.1363   -547.11162    1060.3921       104448     6031 
SHAKE stats (type/ave/delta) on step 30600
  1 1 1.03339e-06
  1 109.47 0.000100866
   30600     278.5585    320.16435   -4814.7041    -555.9417    1095.2902       104448     6031 
SHAKE stats (type/ave/delta) on step 30700
  1 1 2.39736e-06
  1 109.47 0.000217168
   30700    269.66832    294.84634   -4794.5471   -671.70285    1059.9262       104448     6031 
SHAKE stats (type/ave/delta) on step 30800
  1 1 8.59685e-07
  1 109.47 7.63834e-05
   30800    267.94509    289.93882   -4863.1951   -766.69653    963.02014       104448     6031 
SHAKE stats (type/ave/delta) on step 30900
  1 1 1.31218e-06
  1 109.47 0.000111706
   30900    267.83267    289.61865   -4831.7705   -736.99076    1018.4642       104448     6031 
SHAKE stats (type/ave/delta) on step 31000
  1 1 1.32659e-06
  1 109.47 0.000151279
   31000    276.29617    313.72154   -4840.6569   -616.48226    1084.4885       104448     6031 
SHAKE stats (type/ave/delta) on step 31100
  1 1 8.95819e-07
  1 109.47 9.94028e-05
   31100    276.16492    313.34776   -4812.9389   -590.77085    1111.6354       104448     6031 
SHAKE stats (type/ave/delta) on step 31200
  1 1 1.137e-06
  1 109.47 0.000109358
   31200    271.82781    300.99626   -4837.0694    -681.2096    1010.5603       104448     6031 
SHAKE stats (type/ave/delta) on step 31300
  1 1 7.58632e-07
  1 109.47 7.72181e-05
   31300    269.20805    293.53554    -4869.687   -753.87963    936.29029       104448     6031 
SHAKE stats (type/ave/delta) on step 31400
  1 1 8.24543e-07
  1 109.47 0.000114598
   31400     267.1973    287.80922   -4831.3086   -746.24261    996.37876       104448     6031 
SHAKE stats (type/ave/delta) on step 31500
  1 1 1.35912e-06
  1 109.47 0.000127805
   31500    272.12846    301.85247   -4832.4346    -671.9783    1219.8998       104448     6031 
SHAKE stats (type/ave/delta) on step 31600
  1 1 5.70631e-07
  1 109.47 6.4728e-05
   31600    274.03343    307.27756   -4819.5374    -629.9569    1099.1519       104448     6031 
SHAKE stats (type/ave/delta) on step 31700
  1 1 1.07452e-06
  1 109.47 7.80384e-05
   31700    270.77546    297.99933   -4812.6545   -672.88355    1120.8429       104448     6031 
SHAKE stats (type/ave/delta) on step 31800
  1 1 1.00998e-06
  1 109.47 8.01688e-05
   31800    270.21833    296.41268   -4866.8407    -735.5876    957.36121       104448     6031 
SHAKE stats (type/ave/delta) on step 31900
  1 1 6.32735e-07
  1 109.47 8.2497e-05
   31900    268.89286    292.63794   -4856.8435   -745.85491    1134.8164       104448     6031 
SHAKE stats (type/ave/delta) on step 32000
  1 1 8.71081e-07
  1 109.47 8.51708e-05
   32000    269.25315    293.66399   -4812.5242   -696.02728    1164.1576       104448     6031 
SHAKE stats (type/ave/delta) on step 32100
  1 1 7.66274e-07
  1 109.47 8.96603e-05
   32100    273.35523    305.34614   -4826.6912   -647.47944    1103.4927       104448     6031 
SHAKE stats (type/ave/delta) on step 32200
  1 1 6.685e-07
  1 109.47 7.36563e-05
   32200    273.20488    304.91796   -4811.1511   -634.23789    1074.9138       104448     6031 
SHAKE stats (type/ave/delta) on step 32300
  1 1 1.41401e-06
  1 109.47 0.000134866
   32300    268.81237    292.40871   -4800.7851   -691.02704    1033.6894       104448     6031 
SHAKE stats (type/ave/delta) on step 32400
  1 1 6.71865e-07
  1 109.47 8.28878e-05
   32400    267.61162    288.98913   -4792.5938   -701.19358    1022.3244       104448     6031 
SHAKE stats (type/ave/delta) on step 32500
  1 1 1.29336e-06
  1 109.47 0.0001289
   32500    274.09187      307.444   -4816.0405   -625.56651    1021.0894       104448     6031 
SHAKE stats (type/ave/delta) on step 32600
  1 1 6.29606e-07
  1 109.47 7.9858e-05
   32600    272.26498    302.24126   -4756.8416   -594.29812    1177.0052       104448     6031 
SHAKE stats (type/ave/delta) on step 32700
  1 1 1.46113e-06
  1 109.47 0.000103265
   32700    268.16524    290.56577    -4739.644   -639.77968    1114.7884       104448     6031 
SHAKE stats (type/ave/delta) on step 32800
  1 1 7.2321e-07
  1 109.47 6.55847e-05
   32800    269.60052    294.65326    -4803.831   -682.02322     992.8387       104448     6031 
SHAKE stats (type/ave/delta) on step 32900
  1 1 6.52598e-07
  1 109.47 6.66405e-05
   32900    270.19097    296.33477   -4817.4936   -686.65879    1032.5597       104448     6031 
SHAKE stats (type/ave/delta) on step 33000
  1 1 6.91516e-07
  1 109.47 8.4706e-05
   33000    269.47196    294.28714   -4777.3582   -657.51597    1101.3457       104448     6031 
SHAKE stats (type/ave/delta) on step 33100
  1 1 6.16945e-07
  1 109.47 7.28748e-05
   33100    273.78242    306.56272    -4808.418   -622.67511    1170.0708       104448     6031 
SHAKE stats (type/ave/delta) on step 33200
  1 1 8.41358e-07
  1 109.47 8.67449e-05
   33200    273.93864    307.00762   -4828.6902   -640.55881    989.85376       104448     6031 
SHAKE stats (type/ave/delta) on step 33300
  1 1 9.7246e-07
  1 109.47 7.6542e-05
   33300    268.87326    292.58212   -4801.8344    -691.1455    1092.0525       104448     6031 
SHAKE stats (type/ave/delta) on step 33400
  1 1 5.96635e-07
  1 109.47 6.52859e-05
   33400    269.46187     294.2584   -4832.1976   -712.50966    980.23601       104448     6031 
SHAKE stats (type/ave/delta) on step 33500
  1 1 1.0674e-06
  1 109.47 0.000133252
   33500    272.19483     302.0415   -4835.6224   -674.15139    1143.3823       104448     6031 
SHAKE stats (type/ave/delta) on step 33600
  1 1 6.06615e-07
  1 109.47 6.6458e-05
   33600    273.51808    305.80993   -4815.1754   -633.47376    1064.9267       104448     6031 
SHAKE stats (type/ave/delta) on step 33700
  1 1 7.17099e-07
  1 109.47 7.2578e-05
   33700    271.79143    300.89265    -4797.158   -641.85446    1000.4863       104448     6031 
SHAKE stats (type/ave/delta) on step 33800
  1 1 6.44227e-07
  1 109.47 8.32415e-05
   33800    268.26591    290.85246    -4779.296   -677.89264    989.03589       104448     6031 
SHAKE stats (type/ave/delta) on step 33900
  1 1 1.2361e-06
  1 109.47 0.000103515
   33900    272.67197    303.40033    -4826.329   -657.56313    991.82078       104448     6031 
SHAKE stats (type/ave/delta) on step 34000
  1 1 8.92328e-07
  1 109.47 9.16081e-05
   34000    271.08508    298.88108   -4757.0894   -612.58479    1100.9106       104448     6031 
SHAKE stats (type/ave/delta) on step 34100
  1 1 7.15855e-07
  1 109.47 6.81434e-05
   34100    272.14469     301.8987     -4755.48   -594.77559    1082.5336       104448     6031 
SHAKE stats (type/ave/delta) on step 34200
  1 1 9.21463e-07
  1 109.47 9.08905e-05
   34200    270.04989    295.93301   -4756.1629    -627.4849    1065.4355       104448     6031 
SHAKE stats (type/ave/delta) on step 34300
  1 1 5.60288e-07
  1 109.47 6.54107e-05
   34300    269.41055    294.11225   -4773.6627   -654.75929    1049.9676       104448     6031 
SHAKE stats (type/ave/delta) on step 34400
  1 1 5.73426e-07
  1 109.47 7.04404e-05
   34400    270.86078    298.24229    -4787.951   -646.87579    993.18887       104448     6031 
SHAKE stats (type/ave/delta) on step 34500
  1 1 7.01199e-07
  1 109.47 7.66788e-05
   34500    270.91434    298.39483   -4770.3349   -628.44077    1153.4996       104448     6031 
SHAKE stats (type/ave/delta) on step 34600
  1 1 9.36165e-07
  1 109.47 9.98798e-05
   34600    271.78217     300.8663   -4788.1153   -632.95321    1037.3177       104448     6031 
SHAKE stats (type/ave/delta) on step 34700
  1 1 8.07002e-07
  1 109.47 8.78602e-05
   34700    271.34464    299.62027   -4822.7769   -674.30411    943.99387       104448     6031 
SHAKE stats (type/ave/delta) on step 34800
  1 1 6.26367e-07
  1 109.47 7.28541e-05
   34800    269.61377    294.69098   -4820.7015   -698.69127    918.96323       104448     6031 
SHAKE stats (type/ave/delta) on step 34900
  1 1 8.05688e-07
  1 109.47 8.33267e-05
   34900    269.51849    294.41963   -4802.2352   -681.68167    977.20667       104448     6031 
SHAKE stats (type/ave/delta) on step 35000
  1 1 1.04746e-06
  1 109.47 8.62217e-05
   35000    270.88739    298.31808   -4776.8855   -635.40344    1066.8582       104448     6031 
SHAKE stats (type/ave/delta) on step 35100
  1 1 6.12956e-07
  1 109.47 7.12889e-05
   35100    270.08768    296.04061   -4743.4856      -614.23    1054.6228       104448     6031 
SHAKE stats (type/ave/delta) on step 35200
  1 1 7.94904e-07
  1 109.47 7.85521e-05
   35200    269.58571    294.61107   -4715.0529   -593.47165    1211.0448       104448     6031 
SHAKE stats (type/ave/delta) on step 35300
  1 1 7.48403e-07
  1 109.47 7.14262e-05
   35300    273.09526     304.6058   -4750.3173   -575.07989    1066.9494       104448     6031 
SHAKE stats (type/ave/delta) on step 35400
  1 1 8.63751e-07
  1 109.47 9.87265e-05
   35400     271.7227    300.69693   -4774.5736   -620.32083    1090.3066       104448     6031 
SHAKE stats (type/ave/delta) on step 35500
  1 1 7.63332e-07
  1 109.47 7.08588e-05
   35500    268.99489     292.9285   -4796.7422   -684.19371    1067.4973       104448     6031 
SHAKE stats (type/ave/delta) on step 35600
  1 1 6.50972e-07
  1 109.47 9.91409e-05
   35600    267.07706    287.46679   -4780.3034    -697.0758    1096.7084       104448     6031 
SHAKE stats (type/ave/delta) on step 35700
  1 1 8.68957e-07
  1 109.47 0.00014605
   35700     271.1004    298.92471   -4782.4289   -637.69015    1070.8598       104448     6031 
SHAKE stats (type/ave/delta) on step 35800
  1 1 7.12346e-07
  1 109.47 8.31606e-05
   35800    270.54942    297.35558   -4730.5533   -594.23829    1020.5716       104448     6031 
SHAKE stats (type/ave/delta) on step 35900
  1 1 6.6998e-07
  1 109.47 9.10923e-05
   35900    271.77748    300.85294   -4734.8037    -579.7134     1063.895       104448     6031 
SHAKE stats (type/ave/delta) on step 36000
  1 1 8.13049e-07
  1 109.47 7.42603e-05
   36000    272.28558    302.29993   -4743.1148   -580.25638    937.20356       104448     6031 
SHAKE stats (type/ave/delta) on step 36100
  1 1 5.52521e-07
  1 109.47 7.23012e-05
   36100    269.45894    294.25005   -4714.1722   -594.52903     938.9601       104448     6031 
SHAKE stats (type/ave/delta) on step 36200
  1 1 6.25062e-07
  1 109.47 8.11541e-05
   36200    271.16628    299.11231   -4731.0604   -585.31451    1106.3953       104448     6031 
SHAKE stats (type/ave/delta) on step 36300
  1 1 7.25243e-07
  1 109.47 8.21628e-05
   36300    273.60605    306.06044   -4773.8582   -590.81175    973.67459       104448     6031 
SHAKE stats (type/ave/delta) on step 36400
  1 1 6.32685e-07
  1 109.47 6.40848e-05
   36400    270.02594     295.8648    -4749.106   -620.79414    906.67188       104448     6031 
SHAKE stats (type/ave/delta) on step 36500
  1 1 7.07729e-07
  1 109.47 6.89758e-05
   36500    268.38965    291.20486   -4734.1934   -630.89815    1115.1416       104448     6031 
SHAKE stats (type/ave/delta) on step 36600
  1 1 6.73571e-07
  1 109.47 6.08078e-05
   36600    269.18284    293.46375   -4737.7207    -622.2987    1039.1784       104448     6031 
SHAKE stats (type/ave/delta) on step 36700
  1 1 6.27797e-07
  1 109.47 7.49698e-05
   36700    269.91089    295.53714   -4755.9284   -629.37558    1006.8085       104448     6031 
SHAKE stats (type/ave/delta) on step 36800
  1 1 1.061e-06
  1 109.47 0.000113841
   36800    270.19191    296.33744   -4747.5882   -616.73901    923.58363       104448     6031 
SHAKE stats (type/ave/delta) on step 36900
  1 1 1.05446e-06
  1 109.47 0.000133909
   36900    271.34814    299.63024   -4697.8766   -549.35023    1081.5481       104448     6031 
SHAKE stats (type/ave/delta) on step 37000
  1 1 6.06789e-07
  1 109.47 6.98273e-05
   37000     274.2842    307.99173   -4701.0852   -507.67071    1062.9848       104448     6031 
SHAKE stats (type/ave/delta) on step 37100
  1 1 8.69875e-07
  1 109.47 7.83022e-05
   37100    271.70736    300.65323   -4683.8762   -529.85798    1045.7363       104448     6031 
SHAKE stats (type/ave/delta) on step 37200
  1 1 9.386e-07
  1 109.47 9.11401e-05
   37200    269.16227    293.40518   -4702.1166   -587.00914    1039.6011       104448     6031 
SHAKE stats (type/ave/delta) on step 37300
  1 1 6.27008e-07
  1 109.47 7.923e-05
   37300    270.46673     297.1201   -4733.3424   -598.29156    997.23662       104448     6031 
SHAKE stats (type/ave/delta) on step 37400
  1 1 6.34173e-07
  1 109.47 7.8557e-05
   37400    270.12015    296.13309   -4724.8271   -595.07496    1030.5294       104448     6031 
SHAKE stats (type/ave/delta) on step 37500
  1 1 4.98079e-07
  1 109.47 5.52154e-05
   37500    274.11473    307.50909   -4768.9194   -578.09592    825.77693       104448     6031 
SHAKE stats (type/ave/delta) on step 37600
  1 1 6.28986e-07
  1 109.47 5.30495e-05
   37600    269.84336    295.34484   -4718.6493   -593.12882      953.312       104448     6031 
SHAKE stats (type/ave/delta) on step 37700
  1 1 7.5716e-07
  1 109.47 7.8969e-05
   37700    271.03954    298.75138    -4731.964   -588.15581    957.30939       104448     6031 
SHAKE stats (type/ave/delta) on step 37800
  1 1 7.98023e-07
  1 109.47 8.75799e-05
   37800    271.92849      301.283   -4744.7541   -587.35497    1002.5264       104448     6031 
SHAKE stats (type/ave/delta) on step 37900
  1 1 6.65725e-07
  1 109.47 6.41266e-05
   37900    271.16958    299.12171   -4740.2087   -594.41236    1012.6797       104448     6031 
SHAKE stats (type/ave/delta) on step 38000
  1 1 7.87647e-07
  1 109.47 0.000102927
   38000    268.49747    291.51193   -4685.8226    -580.8789    970.79322       104448     6031 
SHAKE stats (type/ave/delta) on step 38100
  1 1 9.40848e-07
  1 109.47 0.000114869
   38100    271.19209    299.18583    -4672.089   -525.94843     960.5493       104448     6031 
SHAKE stats (type/ave/delta) on step 38200
  1 1 6.07871e-07
  1 109.47 6.08465e-05
   38200    274.31044    308.06646   -4694.9885   -501.17283    1041.5141       104448     6031 
SHAKE stats (type/ave/delta) on step 38300
  1 1 1.19321e-06
  1 109.47 9.87451e-05
   38300    270.45634    297.09052   -4701.4512   -566.55915    1013.6976       104448     6031 
SHAKE stats (type/ave/delta) on step 38400
  1 1 1.00821e-06
  1 109.47 0.000103609
   38400    266.70726    286.41364   -4723.1928   -645.61893     989.6934       104448     6031 
SHAKE stats (type/ave/delta) on step 38500
  1 1 8.37049e-07
  1 109.47 9.66855e-05
   38500    268.56188    291.69534   -4750.2678   -644.33948    988.04299       104448     6031 
SHAKE stats (type/ave/delta) on step 38600
  1 1 1.07465e-06
  1 109.47 0.000129155
   38600    272.75934    303.64912   -4735.6919   -565.59038    1025.6166       104448     6031 
SHAKE stats (type/ave/delta) on step 38700
  1 1 5.56774e-07
  1 109.47 8.35003e-05
   38700     276.3458    313.86288   -4735.5003   -510.56695    984.04442       104448     6031 
SHAKE stats (type/ave/delta) on step 38800
  1 1 7.12425e-07
  1 109.47 7.36151e-05
   38800    270.17422    296.28706   -4666.5701   -535.99142    938.12566       104448     6031 
SHAKE stats (type/ave/delta) on step 38900
  1 1 7.67925e-07
  1 109.47 7.33705e-05
   38900    270.94399    298.47926   -4714.4299    -572.0825    868.64609       104448     6031 
SHAKE stats (type/ave/delta) on step 39000
  1 1 6.33307e-07
  1 109.47 7.18452e-05
   39000    266.69103    286.36743   -4664.5753   -587.24952    915.77058       104448     6031 
SHAKE stats (type/ave/delta) on step 39100
  1 1 1.35187e-06
  1 109.47 0.000134721
   39100    268.60166    291.80864   -4652.3592   -545.82263    948.72929       104448     6031 
SHAKE stats (type/ave/delta) on step 39200
  1 1 9.93822e-07
  1 109.47 9.03742e-05
   39200    274.18188    307.70034   -4681.8947   -490.04451    989.60136       104448     6031 
SHAKE stats (type/ave/delta) on step 39300
  1 1 9.97228e-07
  1 109.47 9.09913e-05
   39300     274.3114    308.06918   -4703.8696   -510.03928    904.67892       104448     6031 
SHAKE stats (type/ave/delta) on step 39400
  1 1 1.14441e-06
  1 109.47 9.28414e-05
   39400    269.94106    295.62305   -4706.9823    -579.9683    1059.2658       104448     6031 
SHAKE stats (type/ave/delta) on step 39500
  1 1 6.51563e-07
  1 109.47 8.14531e-05
   39500    268.49223    291.49699   -4720.6984   -615.83487    929.45604       104448     6031 
SHAKE stats (type/ave/delta) on step 39600
  1 1 1.06893e-06
  1 109.47 0.000131092
   39600    271.06389    298.82074   -4707.3338   -563.15315    972.86508       104448     6031 
SHAKE stats (type/ave/delta) on step 39700
  1 1 6.71894e-07
  1 109.47 8.11845e-05
   39700    273.47265    305.68055   -4698.6807   -517.67357     1061.165       104448     6031 
SHAKE stats (type/ave/delta) on step 39800
  1 1 7.34832e-07
  1 109.47 7.00023e-05
   39800    270.03305    295.88505   -4662.2249   -533.80433     1170.047       104448     6031 
SHAKE stats (type/ave/delta) on step 39900
  1 1 9.37585e-07
  1 109.47 8.37517e-05
[...]
  1 1 7.17388e-07
  1 109.47 6.39937e-05
   73900    283.24267    333.50422   -4262.7943    67.582441    834.55369       104448     6031 
SHAKE stats (type/ave/delta) on step 74000
  1 1 6.39449e-07
  1 109.47 8.46939e-05
   74000    282.74707    332.09283   -4242.4069    80.392863    1052.2623       104448     6031 
SHAKE stats (type/ave/delta) on step 74100
  1 1 7.17617e-07
  1 109.47 8.79779e-05
   74100    284.48667    337.04696   -4256.5355    92.860208    1153.1822       104448     6031 
SHAKE stats (type/ave/delta) on step 74200
  1 1 1.29933e-06
  1 109.47 0.000117427
   74200    282.29514    330.80578   -4302.6538    13.236517    1030.0839       104448     6031 
SHAKE stats (type/ave/delta) on step 74300
  1 1 6.7029e-07
  1 109.47 6.73624e-05
   74300    282.32029    330.87741   -4334.0236   -17.748711    986.77613       104448     6031 
SHAKE stats (type/ave/delta) on step 74400
  1 1 1.36675e-06
  1 109.47 0.000127936
   74400     280.6612    326.15255   -4265.3642    25.545589    1003.6534       104448     6031 
SHAKE stats (type/ave/delta) on step 74500
  1 1 4.94366e-07
  1 109.47 6.70564e-05
   74500    285.96152    341.24711   -4282.3828    89.561182    907.08596       104448     6031 
SHAKE stats (type/ave/delta) on step 74600
  1 1 6.21479e-07
  1 109.47 5.86512e-05
   74600    283.27317    333.59108   -4228.8537    101.98936    1050.9708       104448     6031 
SHAKE stats (type/ave/delta) on step 74700
  1 1 8.03018e-07
  1 109.47 8.30136e-05
   74700    283.50343    334.24683   -4224.9119    109.45152    941.13706       104448     6031 
SHAKE stats (type/ave/delta) on step 74800
  1 1 1.44476e-06
  1 109.47 0.000142
   74800     285.2262    339.15303    -4195.826    164.87599    1050.5038       104448     6031 
SHAKE stats (type/ave/delta) on step 74900
  1 1 7.52914e-07
  1 109.47 7.69831e-05
   74900     286.6807    343.29524   -4137.5501    245.38913    1033.8016       104448     6031 
SHAKE stats (type/ave/delta) on step 75000
  1 1 7.77645e-07
  1 109.47 7.61557e-05
   75000     285.3338    339.45946   -4143.8597    218.48744    1175.8449       104448     6031 
SHAKE stats (type/ave/delta) on step 75100
  1 1 7.29667e-07
  1 109.47 8.01166e-05
   75100    285.65023    340.36061   -4183.1893    183.99559    972.09867       104448     6031 
SHAKE stats (type/ave/delta) on step 75200
  1 1 6.16019e-07
  1 109.47 5.98574e-05
   75200     281.2791    327.91224   -4145.9485    154.40811     1087.671       104448     6031 
SHAKE stats (type/ave/delta) on step 75300
  1 1 7.64711e-07
  1 109.47 6.21065e-05
   75300    285.84662    340.91989   -4193.2377    176.94966    881.09973       104448     6031 
SHAKE stats (type/ave/delta) on step 75400
  1 1 1.00444e-06
  1 109.47 0.00011147
   75400    288.23027    347.70821   -4172.3266    234.30341    1039.8664       104448     6031 
SHAKE stats (type/ave/delta) on step 75500
  1 1 1.03182e-06
  1 109.47 0.000101724
   75500    286.52136    342.84148   -4148.5539    231.94938    1147.1209       104448     6031 
SHAKE stats (type/ave/delta) on step 75600
  1 1 8.65721e-07
  1 109.47 0.000107268
   75600    283.14416    333.22369   -4195.0091    133.86161    1045.1669       104448     6031 
SHAKE stats (type/ave/delta) on step 75700
  1 1 6.54246e-07
  1 109.47 6.79169e-05
   75700     285.7676    340.69486   -4242.0344    126.94484     1052.803       104448     6031 
SHAKE stats (type/ave/delta) on step 75800
  1 1 6.71691e-07
  1 109.47 9.00648e-05
   75800    282.21939    330.59006   -4162.1986     152.5337    1037.1456       104448     6031 
SHAKE stats (type/ave/delta) on step 75900
  1 1 1.08847e-06
  1 109.47 0.000111081
   75900    285.36326    339.54337   -4148.7137    214.08388     1033.134       104448     6031 
SHAKE stats (type/ave/delta) on step 76000
  1 1 7.12886e-07
  1 109.47 6.94918e-05
   76000    287.33112    345.14757   -4151.5046    241.37874    1068.0725       104448     6031 
SHAKE stats (type/ave/delta) on step 76100
  1 1 1.94771e-06
  1 109.47 0.000164341
   76100    285.36547    339.54967   -4200.7321    162.09931    1081.2062       104448     6031 
SHAKE stats (type/ave/delta) on step 76200
  1 1 8.0537e-07
  1 109.47 9.35833e-05
   76200    280.37231    325.32984   -4181.6581    104.83494    946.21935       104448     6031 
SHAKE stats (type/ave/delta) on step 76300
  1 1 1.08367e-06
  1 109.47 0.000155157
   76300     283.0489     332.9524   -4162.9168    164.49757    918.01572       104448     6031 
SHAKE stats (type/ave/delta) on step 76400
  1 1 8.31347e-07
  1 109.47 7.8961e-05
   76400     288.1933    347.60293   -4192.0945    213.97029    1009.0253       104448     6031 
SHAKE stats (type/ave/delta) on step 76500
  1 1 7.17049e-07
  1 109.47 7.47062e-05
   76500    285.32362    339.43047   -4163.4411    198.75039    1072.2995       104448     6031 
SHAKE stats (type/ave/delta) on step 76600
  1 1 1.13274e-06
  1 109.47 9.57363e-05
   76600     283.4023    333.95883   -4184.4547    148.36257    1075.4192       104448     6031 
SHAKE stats (type/ave/delta) on step 76700
  1 1 8.90706e-07
  1 109.47 7.62926e-05
   76700    284.08929    335.91526   -4255.1569    88.163361    887.29717       104448     6031 
SHAKE stats (type/ave/delta) on step 76800
  1 1 7.0609e-07
  1 109.47 7.74224e-05
   76800    278.99945     321.4201   -4200.8045    64.699385    1113.8584       104448     6031 
SHAKE stats (type/ave/delta) on step 76900
  1 1 1.27223e-06
  1 109.47 0.000141142
   76900     287.7091      346.224   -4226.1526     172.5095    1084.2553       104448     6031 
SHAKE stats (type/ave/delta) on step 77000
  1 1 6.82563e-07
  1 109.47 7.66966e-05
   77000    285.56212    340.10969     -4161.65    204.18783    1056.1798       104448     6031 
SHAKE stats (type/ave/delta) on step 77100
  1 1 8.87217e-07
  1 109.47 7.59145e-05
   77100    283.34704    333.80146   -4148.0418    183.93065    1165.5582       104448     6031 
SHAKE stats (type/ave/delta) on step 77200
  1 1 7.46565e-07
  1 109.47 6.38682e-05
   77200    283.97434     335.5879   -4194.9675    146.59535    1001.8505       104448     6031 
SHAKE stats (type/ave/delta) on step 77300
  1 1 6.89914e-07
  1 109.47 7.93205e-05
   77300    283.25419    333.53703   -4191.4454    139.10752    1032.5698       104448     6031 
SHAKE stats (type/ave/delta) on step 77400
  1 1 9.22596e-07
  1 109.47 0.000141075
   77400    288.62173    348.82304   -4202.6135    210.00141    1042.8418       104448     6031 
SHAKE stats (type/ave/delta) on step 77500
  1 1 7.91766e-07
  1 109.47 7.70365e-05
   77500    288.73094    349.13404    -4191.804    222.48051    1056.1981       104448     6031 
SHAKE stats (type/ave/delta) on step 77600
  1 1 9.61941e-07
  1 109.47 8.86809e-05
   77600    284.14997    336.08809   -4196.5859    147.66221    1050.5782       104448     6031 
SHAKE stats (type/ave/delta) on step 77700
  1 1 6.30143e-07
  1 109.47 7.70444e-05
   77700    282.37891    331.04436   -4183.3927    133.77842    1013.2938       104448     6031 
SHAKE stats (type/ave/delta) on step 77800
  1 1 7.12852e-07
  1 109.47 6.68411e-05
   77800    283.23604    333.48534   -4170.6041    159.67128    1076.3486       104448     6031 
SHAKE stats (type/ave/delta) on step 77900
  1 1 5.79922e-07
  1 109.47 7.35326e-05
   77900    285.97795     341.2939   -4201.7807    170.41449    1063.6773       104448     6031 
SHAKE stats (type/ave/delta) on step 78000
  1 1 6.0112e-07
  1 109.47 6.68554e-05
   78000    286.97216    344.12528   -4234.7827    152.61254    955.82224       104448     6031 
SHAKE stats (type/ave/delta) on step 78100
  1 1 1.20779e-06
  1 109.47 0.000123898
   78100    281.32287    328.03688   -4194.6607    106.36497    993.28203       104448     6031 
SHAKE stats (type/ave/delta) on step 78200
  1 1 1.49492e-06
  1 109.47 0.0001548
   78200    283.87546     335.3063   -4221.6944    118.35678     982.0528       104448     6031 
SHAKE stats (type/ave/delta) on step 78300
  1 1 7.59344e-07
  1 109.47 7.14395e-05
   78300    283.31793    333.71853   -4141.8138     189.7135     1118.848       104448     6031 
SHAKE stats (type/ave/delta) on step 78400
  1 1 7.32801e-07
  1 109.47 6.58174e-05
   78400    285.18754    339.04293   -4147.0544    213.05661    1095.1452       104448     6031 
SHAKE stats (type/ave/delta) on step 78500
  1 1 1.11216e-06
  1 109.47 8.26608e-05
   78500    288.83659    349.43493   -4223.3669    192.53292    998.80595       104448     6031 
SHAKE stats (type/ave/delta) on step 78600
  1 1 6.98413e-07
  1 109.47 7.2405e-05
   78600    284.38409    336.75481   -4237.9902    109.83718     939.3119       104448     6031 
SHAKE stats (type/ave/delta) on step 78700
  1 1 8.78003e-07
  1 109.47 8.01192e-05
   78700    284.03776    335.76852   -4211.7336    130.79898    961.24108       104448     6031 
SHAKE stats (type/ave/delta) on step 78800
  1 1 7.07415e-07
  1 109.47 7.30153e-05
   78800    285.18598    339.03851   -4183.5124    176.57487    1016.7937       104448     6031 
SHAKE stats (type/ave/delta) on step 78900
  1 1 9.60553e-07
  1 109.47 0.000121855
   78900    285.80295    340.79555   -4153.8012    215.71856    1027.9763       104448     6031 
SHAKE stats (type/ave/delta) on step 79000
  1 1 5.90905e-07
  1 109.47 6.23809e-05
   79000    286.42253    342.56001   -4134.0981    244.89409    1104.1576       104448     6031 
SHAKE stats (type/ave/delta) on step 79100
  1 1 7.33984e-07
  1 109.47 9.13368e-05
   79100    287.00154    344.20896   -4148.5201     239.3244    990.09128       104448     6031 
SHAKE stats (type/ave/delta) on step 79200
  1 1 7.17534e-07
  1 109.47 9.23735e-05
   79200    285.57377    340.14288   -4159.4523    206.56374    1078.8029       104448     6031 
SHAKE stats (type/ave/delta) on step 79300
  1 1 6.07071e-07
  1 109.47 5.64463e-05
   79300    288.63927    348.87299   -4214.1489    198.73418    1078.0721       104448     6031 
SHAKE stats (type/ave/delta) on step 79400
  1 1 6.88795e-07
  1 109.47 7.477e-05
   79400     285.8421    340.90703   -4178.1021     192.0162    1064.1354       104448     6031 
SHAKE stats (type/ave/delta) on step 79500
  1 1 6.93263e-07
  1 109.47 9.59145e-05
   79500    287.23315    344.86855   -4170.4592    220.92624    959.33412       104448     6031 
SHAKE stats (type/ave/delta) on step 79600
  1 1 1.17036e-06
  1 109.47 0.000109075
   79600    289.49168    351.30054   -4149.4462    276.46899     1018.093       104448     6031 
SHAKE stats (type/ave/delta) on step 79700
  1 1 7.55456e-07
  1 109.47 9.5883e-05
   79700    289.37587    350.97073   -4093.3498    330.79484    998.98692       104448     6031 
SHAKE stats (type/ave/delta) on step 79800
  1 1 2.02061e-06
  1 109.47 0.000137238
   79800    286.93318    344.01429    -4095.406    291.39343    1019.5278       104448     6031 
SHAKE stats (type/ave/delta) on step 79900
  1 1 6.66628e-07
  1 109.47 7.25267e-05
   79900     284.5394    337.19713   -4148.4468    201.75507    1002.3358       104448     6031 
SHAKE stats (type/ave/delta) on step 80000
  1 1 6.64869e-07
  1 109.47 8.07467e-05
   80000    283.65307    334.67298   -4126.1222    210.52893    1184.6532       104448     6031 
SHAKE stats (type/ave/delta) on step 80100
  1 1 6.97039e-07
  1 109.47 9.70976e-05
   80100    286.70299    343.35872   -4131.2105    252.06956    1246.2646       104448     6031 
SHAKE stats (type/ave/delta) on step 80200
  1 1 7.63549e-07
  1 109.47 0.000103326
   80200    288.26958    347.82016   -4107.3894    299.84154    1098.5355       104448     6031 
SHAKE stats (type/ave/delta) on step 80300
  1 1 7.98459e-07
  1 109.47 0.000115296
   80300    288.65319    348.91263   -4081.0573    332.03859    1164.8931       104448     6031 
SHAKE stats (type/ave/delta) on step 80400
  1 1 1.63444e-06
  1 109.47 0.000155968
   80400    289.29241    350.73304   -4104.7901    318.07852    1056.0491       104448     6031 
SHAKE stats (type/ave/delta) on step 80500
  1 1 7.79117e-07
  1 109.47 7.27689e-05
   80500    284.76535     337.8406   -4119.8648    233.79157    1052.1934       104448     6031 
SHAKE stats (type/ave/delta) on step 80600
  1 1 6.02947e-07
  1 109.47 5.73895e-05
   80600    285.71116    340.53415   -4143.2795      224.837    932.15622       104448     6031 
SHAKE stats (type/ave/delta) on step 80700
  1 1 1.01958e-06
  1 109.47 0.000118044
   80700    287.86307    346.66249   -4133.9457     267.0704    1034.0118       104448     6031 
SHAKE stats (type/ave/delta) on step 80800
  1 1 5.11979e-07
  1 109.47 6.84044e-05
   80800     292.3991    359.58045   -4146.1926     324.1728    952.69022       104448     6031 
SHAKE stats (type/ave/delta) on step 80900
  1 1 1.25667e-06
  1 109.47 0.000107368
   80900    289.05361    350.05297   -4133.6892    285.52848    1011.6772       104448     6031 
SHAKE stats (type/ave/delta) on step 81000
  1 1 6.18292e-07
  1 109.47 5.99023e-05
   81000    283.72861    334.88811   -4128.1956    209.61051    959.71374       104448     6031 
SHAKE stats (type/ave/delta) on step 81100
  1 1 1.13777e-06
  1 109.47 0.000114584
   81100    283.97021    335.57614   -4102.2879    239.21184    965.72122       104448     6031 
SHAKE stats (type/ave/delta) on step 81200
  1 1 9.08771e-07
  1 109.47 0.00011094
   81200    289.64267    351.73053   -4128.9081    299.31546    1110.2947       104448     6031 
SHAKE stats (type/ave/delta) on step 81300
  1 1 8.3645e-07
  1 109.47 8.18558e-05
   81300    288.63212    348.85262   -4110.5434    302.23032     1120.381       104448     6031 
SHAKE stats (type/ave/delta) on step 81400
  1 1 1.06573e-06
  1 109.47 9.40816e-05
   81400    286.53836    342.88988   -4133.3067    247.45635    1079.0146       104448     6031 
SHAKE stats (type/ave/delta) on step 81500
  1 1 7.76403e-07
  1 109.47 6.26114e-05
   81500    285.60641    340.23582   -4165.3553    201.15965    908.66758       104448     6031 
SHAKE stats (type/ave/delta) on step 81600
  1 1 7.95612e-07
  1 109.47 9.12829e-05
   81600    283.82964    335.17582    -4144.659    194.69165    1005.5548       104448     6031 
SHAKE stats (type/ave/delta) on step 81700
  1 1 1.10619e-06
  1 109.47 0.000101753
   81700    289.20529    350.48495   -4138.1737    283.36308      980.129       104448     6031 
SHAKE stats (type/ave/delta) on step 81800
  1 1 6.97561e-07
  1 109.47 6.8916e-05
   81800    287.78304    346.43456   -4082.8984    316.89409    944.86805       104448     6031 
SHAKE stats (type/ave/delta) on step 81900
  1 1 7.1692e-07
  1 109.47 7.5226e-05
   81900    284.79275    337.91862   -4038.4557     315.6195    1141.4097       104448     6031 
SHAKE stats (type/ave/delta) on step 82000
  1 1 7.60498e-07
  1 109.47 0.000100871
   82000    284.62418    337.43855   -4020.6832    330.81475    1187.4928       104448     6031 
SHAKE stats (type/ave/delta) on step 82100
  1 1 1.19247e-06
  1 109.47 0.000113331
   82100    288.28613    347.86729   -4034.0265    373.45754    1063.3641       104448     6031 
SHAKE stats (type/ave/delta) on step 82200
  1 1 6.3964e-07
  1 109.47 7.80607e-05
   82200    290.04991    352.89029   -4037.8344    396.61533     1088.782       104448     6031 
SHAKE stats (type/ave/delta) on step 82300
  1 1 1.43568e-06
  1 109.47 0.000207915
   82300    288.61267    348.79724   -4080.0939    332.38254    1027.6779       104448     6031 
SHAKE stats (type/ave/delta) on step 82400
  1 1 8.51207e-07
  1 109.47 8.99326e-05
   82400    286.68298    343.30176   -4116.9461    266.02808    1048.6577       104448     6031 
SHAKE stats (type/ave/delta) on step 82500
  1 1 5.73219e-07
  1 109.47 8.13718e-05
   82500    286.88936    343.88948   -4124.5434    261.58596    1094.1662       104448     6031 
SHAKE stats (type/ave/delta) on step 82600
  1 1 8.05969e-07
  1 109.47 0.000115339
   82600    287.91712    346.81641   -4110.3775    291.46487    1062.2551       104448     6031 
SHAKE stats (type/ave/delta) on step 82700
  1 1 1.33792e-06
  1 109.47 0.000148973
   82700    293.19393    361.84405   -4111.7441     370.7733     994.0852       104448     6031 
SHAKE stats (type/ave/delta) on step 82800
  1 1 6.2965e-07
  1 109.47 8.07445e-05
   82800     293.2267    361.93737   -4076.6392    406.37919    1021.2339       104448     6031 
SHAKE stats (type/ave/delta) on step 82900
  1 1 1.2741e-06
  1 109.47 0.000133372
   82900    285.92501    341.14315   -4065.3726    306.01327    1077.3809       104448     6031 
SHAKE stats (type/ave/delta) on step 83000
  1 1 5.20587e-07
  1 109.47 7.40387e-05
   83000    288.37367     348.1166   -4120.3404    288.48205     1047.937       104448     6031 
SHAKE stats (type/ave/delta) on step 83100
  1 1 6.33113e-07
  1 109.47 7.07215e-05
   83100    286.80092    343.63762   -4071.1818    313.59554    1129.7251       104448     6031 
SHAKE stats (type/ave/delta) on step 83200
  1 1 6.02229e-07
  1 109.47 8.07363e-05
   83200     290.6824    354.69153   -4114.0935    330.02602     961.1084       104448     6031 
SHAKE stats (type/ave/delta) on step 83300
  1 1 6.79621e-07
  1 109.47 7.90895e-05
   83300    285.46781    339.84111   -4041.5612    322.83477    1023.7807       104448     6031 
SHAKE stats (type/ave/delta) on step 83400
  1 1 8.3041e-07
  1 109.47 0.000122551
   83400    289.27154    350.67362   -4075.5327    347.01686    1016.3287       104448     6031 
SHAKE stats (type/ave/delta) on step 83500
  1 1 9.26095e-07
  1 109.47 0.000123383
   83500    292.36913    359.49512   -4053.5179    416.38937    894.73477       104448     6031 
SHAKE stats (type/ave/delta) on step 83600
  1 1 1.25025e-06
  1 109.47 0.000108231
   83600     289.6661    351.79727   -4040.3424    388.23953    1055.1942       104448     6031 
SHAKE stats (type/ave/delta) on step 83700
  1 1 6.31971e-07
  1 109.47 7.12662e-05
   83700    286.13867    341.75163   -4054.7592    319.89331    960.22855       104448     6031 
SHAKE stats (type/ave/delta) on step 83800
  1 1 8.09927e-07
  1 109.47 6.78098e-05
   83800    288.26631    347.81085   -4072.0218    335.15924    970.28084       104448     6031 
SHAKE stats (type/ave/delta) on step 83900
  1 1 8.1849e-07
  1 109.47 9.74002e-05
   83900    291.48089    356.96553   -4088.8424    367.48496    994.00132       104448     6031 
SHAKE stats (type/ave/delta) on step 84000
  1 1 4.42404e-07
  1 109.47 5.41871e-05
   84000    290.51099    354.20339    -4051.182    390.31704    1113.5683       104448     6031 
SHAKE stats (type/ave/delta) on step 84100
  1 1 1.34563e-06
  1 109.47 9.07936e-05
   84100    289.89237    352.44164   -4070.2439    361.79724    1038.7043       104448     6031 
SHAKE stats (type/ave/delta) on step 84200
  1 1 8.56756e-07
  1 109.47 9.52178e-05
   84200    286.15715    341.80426     -4097.66    277.27505    991.49479       104448     6031 
SHAKE stats (type/ave/delta) on step 84300
  1 1 7.2638e-07
  1 109.47 8.51698e-05
   84300    289.83777    352.28615   -4152.0888    279.11756    966.41956       104448     6031 
SHAKE stats (type/ave/delta) on step 84400
  1 1 1.05871e-06
  1 109.47 0.000118824
   84400    288.31325    347.94453   -4084.3428    323.55587    1146.4346       104448     6031 
SHAKE stats (type/ave/delta) on step 84500
  1 1 8.32501e-07
  1 109.47 9.41748e-05
   84500    290.93872     355.4215   -4048.0082     400.0301    1028.0517       104448     6031 
SHAKE stats (type/ave/delta) on step 84600
  1 1 7.76685e-07
  1 109.47 6.61806e-05
   84600     287.7852     346.4407   -4002.4281    397.39735    1163.0633       104448     6031 
SHAKE stats (type/ave/delta) on step 84700
  1 1 6.58136e-07
  1 109.47 5.91845e-05
   84700    288.78128    349.27741   -4041.6868    373.36737    1039.3175       104448     6031 
SHAKE stats (type/ave/delta) on step 84800
  1 1 6.80693e-07
  1 109.47 8.99545e-05
   84800    287.90471    346.78108   -4032.4232    369.22954    990.15646       104448     6031 
SHAKE stats (type/ave/delta) on step 84900
  1 1 1.01215e-06
  1 109.47 9.19716e-05
   84900    290.36437    353.78584   -4051.7589    387.4984