ITEM: TIMESTEP
0
ITEM: NUMBER OF ATOMS
800
ITEM: BOX BOUNDS pp pp pp
0.0000000000000000e+00 4.2600000000000001e+01
0.0000000000000000e+00 2.4594400000000000e+01
0.0000000000000000e+00 5.0000000000000000e+00
ITEM: ATOMS id type xs ys zs
1 1 0 0 0
2 1 0.0333333 0 0
3 1 0.05 0.05 0
4 1 0.0833333 0.05 0
5 1 0.1 0 0
41 1 0 0.1 0
42 1 0.0333333 0.1 0
43 1 0.05 0.15 0
44 1 0.0833333 0.15 0
45 1 0.1 0.1 0
81 1 0 0.2 0
82 1 0.0333333 0.2 0
85 1 0.1 0.2 0
401 1 0.0333333 0 0.664
402 1 0.0666667 0 0.664
403 1 0.0833333 0.05 0.664
404 1 0.116667 0.05 0.664
440 1 0.0166667 0.05 0.664
441 1 0.0333333 0.1 0.664
442 1 0.0666667 0.1 0.664
443 1 0.0833333 0.15 0.664
444 1 0.116667 0.15 0.664
480 1 0.0166667 0.15 0.664
481 1 0.0333333 0.2 0.664
482 1 0.0666667 0.2 0.664
6 1 0.133333 0 0
7 1 0.15 0.05 0
8 1 0.183333 0.05 0
9 1 0.2 0 0
10 1 0.233333 0 0
46 1 0.133333 0.1 0
47 1 0.15 0.15 0
48 1 0.183333 0.15 0
49 1 0.2 0.1 0
50 1 0.233333 0.1 0
86 1 0.133333 0.2 0
89 1 0.2 0.2 0
90 1 0.233333 0.2 0
405 1 0.133333 0 0.664
406 1 0.166667 0 0.664
407 1 0.183333 0.05 0.664
408 1 0.216667 0.05 0.664
409 1 0.233333 0 0.664
445 1 0.133333 0.1 0.664
446 1 0.166667 0.1 0.664
447 1 0.183333 0.15 0.664
448 1 0.216667 0.15 0.664
449 1 0.233333 0.1 0.664
485 1 0.133333 0.2 0.664
486 1 0.166667 0.2 0.664
489 1 0.233333 0.2 0.664
11 1 0.25 0.05 0
12 1 0.283333 0.05 0
13 1 0.3 0 0
14 1 0.333333 0 0
15 1 0.35 0.05 0
51 1 0.25 0.15 0
52 1 0.283333 0.15 0
53 1 0.3 0.1 0
54 1 0.333333 0.1 0
55 1 0.35 0.15 0
93 1 0.3 0.2 0
94 1 0.333333 0.2 0
410 1 0.266667 0 0.664
411 1 0.283333 0.05 0.664
412 1 0.316667 0.05 0.664
413 1 0.333333 0 0.664
414 1 0.366667 0 0.664
450 1 0.266667 0.1 0.664
451 1 0.283333 0.15 0.664
452 1 0.316667 0.15 0.664
453 1 0.333333 0.1 0.664
454 1 0.366667 0.1 0.664
490 1 0.266667 0.2 0.664
493 1 0.333333 0.2 0.664
494 1 0.366667 0.2 0.664
16 1 0.383333 0.05 0
17 1 0.4 0 0
18 1 0.433333 0 0
19 1 0.45 0.05 0
20 1 0.483333 0.05 0
56 1 0.383333 0.15 0
57 1 0.4 0.1 0
58 1 0.433333 0.1 0
59 1 0.45 0.15 0
60 1 0.483333 0.15 0
97 1 0.4 0.2 0
98 1 0.433333 0.2 0
415 1 0.383333 0.05 0.664
416 1 0.416667 0.05 0.664
417 1 0.433333 0 0.664
418 1 0.466667 0 0.664
419 1 0.483333 0.05 0.664
455 1 0.383333 0.15 0.664
456 1 0.416667 0.15 0.664
457 1 0.433333 0.1 0.664
458 1 0.466667 0.1 0.664
459 1 0.483333 0.15 0.664
497 1 0.433333 0.2 0.664
498 1 0.466667 0.2 0.664
21 1 0.5 0 0
22 1 0.533333 0 0
23 1 0.55 0.05 0
24 1 0.583333 0.05 0
25 1 0.6 0 0
61 1 0.5 0.1 0
62 1 0.533333 0.1 0
63 1 0.55 0.15 0
64 1 0.583333 0.15 0
65 1 0.6 0.1 0
101 1 0.5 0.2 0
102 1 0.533333 0.2 0
105 1 0.6 0.2 0
420 1 0.516667 0.05 0.664
421 1 0.533333 0 0.664
422 1 0.566667 0 0.664
423 1 0.583333 0.05 0.664
424 1 0.616667 0.05 0.664
460 1 0.516667 0.15 0.664
461 1 0.533333 0.1 0.664
462 1 0.566667 0.1 0.664
463 1 0.583333 0.15 0.664
464 1 0.616667 0.15 0.664
501 1 0.533333 0.2 0.664
502 1 0.566667 0.2 0.664
26 1 0.633333 0 0
27 1 0.65 0.05 0
28 1 0.683333 0.05 0
29 1 0.7 0 0
30 1 0.733333 0 0
66 1 0.633333 0.1 0
67 1 0.65 0.15 0
68 1 0.683333 0.15 0
69 1 0.7 0.1 0
70 1 0.733333 0.1 0
106 1 0.633333 0.2 0
109 1 0.7 0.2 0
110 1 0.733333 0.2 0
425 1 0.633333 0 0.664
426 1 0.666667 0 0.664
427 1 0.683333 0.05 0.664
428 1 0.716667 0.05 0.664
429 1 0.733333 0 0.664
465 1 0.633333 0.1 0.664
466 1 0.666667 0.1 0.664
467 1 0.683333 0.15 0.664
468 1 0.716667 0.15 0.664
469 1 0.733333 0.1 0.664
505 1 0.633333 0.2 0.664
506 1 0.666667 0.2 0.664
509 1 0.733333 0.2 0.664
31 1 0.75 0.05 0
32 1 0.783333 0.05 0
33 1 0.8 0 0
34 1 0.833333 0 0
35 1 0.85 0.05 0
71 1 0.75 0.15 0
72 1 0.783333 0.15 0
73 1 0.8 0.1 0
74 1 0.833333 0.1 0
75 1 0.85 0.15 0
113 1 0.8 0.2 0
114 1 0.833333 0.2 0
430 1 0.766667 0 0.664
431 1 0.783333 0.05 0.664
432 1 0.816667 0.05 0.664
433 1 0.833333 0 0.664
434 1 0.866667 0 0.664
470 1 0.766667 0.1 0.664
471 1 0.783333 0.15 0.664
472 1 0.816667 0.15 0.664
473 1 0.833333 0.1 0.664
474 1 0.866667 0.1 0.664
510 1 0.766667 0.2 0.664
513 1 0.833333 0.2 0.664
514 1 0.866667 0.2 0.664
36 1 0.883333 0.05 0
37 1 0.9 0 0
38 1 0.933333 0 0
39 1 0.95 0.05 0
40 1 0.983333 0.05 0
76 1 0.883333 0.15 0
77 1 0.9 0.1 0
78 1 0.933333 0.1 0
79 1 0.95 0.15 0
80 1 0.983333 0.15 0
117 1 0.9 0.2 0
118 1 0.933333 0.2 0
435 1 0.883333 0.05 0.664
436 1 0.916667 0.05 0.664
437 1 0.933333 0 0.664
438 1 0.966667 0 0.664
439 1 0.983333 0.05 0.664
475 1 0.883333 0.15 0.664
476 1 0.916667 0.15 0.664
477 1 0.933333 0.1 0.664
478 1 0.966667 0.1 0.664
479 1 0.983333 0.15 0.664
517 1 0.933333 0.2 0.664
518 1 0.966667 0.2 0.664
83 1 0.05 0.25 0
84 1 0.0833333 0.25 0
121 1 0 0.3 0
122 1 0.0333333 0.3 0
123 1 0.05 0.35 0
124 1 0.0833333 0.35 0
125 1 0.1 0.3 0
161 1 0 0.4 0
162 1 0.0333333 0.4 0
163 1 0.05 0.45 0
164 1 0.0833333 0.45 0
165 1 0.1 0.4 0
483 1 0.0833333 0.25 0.664
484 1 0.116667 0.25 0.664
520 1 0.0166667 0.25 0.664
521 1 0.0333333 0.3 0.664
522 1 0.0666667 0.3 0.664
523 1 0.0833333 0.35 0.664
524 1 0.116667 0.35 0.664
560 1 0.0166667 0.35 0.664
561 1 0.0333333 0.4 0.664
562 1 0.0666667 0.4 0.664
563 1 0.0833333 0.45 0.664
564 1 0.116667 0.45 0.664
600 1 0.0166667 0.45 0.664
87 1 0.15 0.25 0
88 1 0.183333 0.25 0
126 1 0.133333 0.3 0
127 1 0.15 0.35 0
128 1 0.183333 0.35 0
129 1 0.2 0.3 0
130 1 0.233333 0.3 0
166 1 0.133333 0.4 0
167 1 0.15 0.45 0
168 1 0.183333 0.45 0
169 1 0.2 0.4 0
170 1 0.233333 0.4 0
487 1 0.183333 0.25 0.664
488 1 0.216667 0.25 0.664
525 1 0.133333 0.3 0.664
526 1 0.166667 0.3 0.664
527 1 0.183333 0.35 0.664
528 1 0.216667 0.35 0.664
529 1 0.233333 0.3 0.664
565 1 0.133333 0.4 0.664
566 1 0.166667 0.4 0.664
567 1 0.183333 0.45 0.664
568 1 0.216667 0.45 0.664
569 1 0.233333 0.4 0.664
91 1 0.25 0.25 0
92 1 0.283333 0.25 0
95 1 0.35 0.25 0
131 1 0.25 0.35 0
132 1 0.283333 0.35 0
133 1 0.3 0.3 0
134 1 0.333333 0.3 0
135 1 0.35 0.35 0
171 1 0.25 0.45 0
172 1 0.283333 0.45 0
173 1 0.3 0.4 0
174 1 0.333333 0.4 0
175 1 0.35 0.45 0
491 1 0.283333 0.25 0.664
492 1 0.316667 0.25 0.664
530 1 0.266667 0.3 0.664
531 1 0.283333 0.35 0.664
532 1 0.316667 0.35 0.664
533 1 0.333333 0.3 0.664
534 1 0.366667 0.3 0.664
570 1 0.266667 0.4 0.664
571 1 0.283333 0.45 0.664
572 1 0.316667 0.45 0.664
573 1 0.333333 0.4 0.664
574 1 0.366667 0.4 0.664
96 1 0.383333 0.25 0
99 1 0.45 0.25 0
100 1 0.483333 0.25 0
136 1 0.383333 0.35 0
137 1 0.4 0.3 0
138 1 0.433333 0.3 0
139 1 0.45 0.35 0
140 1 0.483333 0.35 0
176 1 0.383333 0.45 0
177 1 0.4 0.4 0
178 1 0.433333 0.4 0
179 1 0.45 0.45 0
180 1 0.483333 0.45 0
495 1 0.383333 0.25 0.664
496 1 0.416667 0.25 0.664
499 1 0.483333 0.25 0.664
535 1 0.383333 0.35 0.664
536 1 0.416667 0.35 0.664
537 1 0.433333 0.3 0.664
538 1 0.466667 0.3 0.664
539 1 0.483333 0.35 0.664
575 1 0.383333 0.45 0.664
576 1 0.416667 0.45 0.664
577 1 0.433333 0.4 0.664
578 1 0.466667 0.4 0.664
579 1 0.483333 0.45 0.664
103 1 0.55 0.25 0
104 1 0.583333 0.25 0
141 1 0.5 0.3 0
142 1 0.533333 0.3 0
143 1 0.55 0.35 0
144 1 0.583333 0.35 0
145 1 0.6 0.3 0
181 1 0.5 0.4 0
182 1 0.533333 0.4 0
183 1 0.55 0.45 0
184 1 0.583333 0.45 0
185 1 0.6 0.4 0
500 1 0.516667 0.25 0.664
503 1 0.583333 0.25 0.664
504 1 0.616667 0.25 0.664
540 1 0.516667 0.35 0.664
541 1 0.533333 0.3 0.664
542 1 0.566667 0.3 0.664
543 1 0.583333 0.35 0.664
544 1 0.616667 0.35 0.664
580 1 0.516667 0.45 0.664
581 1 0.533333 0.4 0.664
582 1 0.566667 0.4 0.664
583 1 0.583333 0.45 0.664
584 1 0.616667 0.45 0.664
107 1 0.65 0.25 0
108 1 0.683333 0.25 0
146 1 0.633333 0.3 0
147 1 0.65 0.35 0
148 1 0.683333 0.35 0
149 1 0.7 0.3 0
150 1 0.733333 0.3 0
186 1 0.633333 0.4 0
187 1 0.65 0.45 0
188 1 0.683333 0.45 0
189 1 0.7 0.4 0
190 1 0.733333 0.4 0
507 1 0.683333 0.25 0.664
508 1 0.716667 0.25 0.664
545 1 0.633333 0.3 0.664
546 1 0.666667 0.3 0.664
547 1 0.683333 0.35 0.664
548 1 0.716667 0.35 0.664
549 1 0.733333 0.3 0.664
585 1 0.633333 0.4 0.664
586 1 0.666667 0.4 0.664
587 1 0.683333 0.45 0.664
588 1 0.716667 0.45 0.664
589 1 0.733333 0.4 0.664
111 1 0.75 0.25 0
112 1 0.783333 0.25 0
115 1 0.85 0.25 0
151 1 0.75 0.35 0
152 1 0.783333 0.35 0
153 1 0.8 0.3 0
154 1 0.833333 0.3 0
155 1 0.85 0.35 0
191 1 0.75 0.45 0
192 1 0.783333 0.45 0
193 1 0.8 0.4 0
194 1 0.833333 0.4 0
195 1 0.85 0.45 0
511 1 0.783333 0.25 0.664
512 1 0.816667 0.25 0.664
550 1 0.766667 0.3 0.664
551 1 0.783333 0.35 0.664
552 1 0.816667 0.35 0.664
553 1 0.833333 0.3 0.664
554 1 0.866667 0.3 0.664
590 1 0.766667 0.4 0.664
591 1 0.783333 0.45 0.664
592 1 0.816667 0.45 0.664
593 1 0.833333 0.4 0.664
594 1 0.866667 0.4 0.664
116 1 0.883333 0.25 0
119 1 0.95 0.25 0
120 1 0.983333 0.25 0
156 1 0.883333 0.35 0
157 1 0.9 0.3 0
158 1 0.933333 0.3 0
159 1 0.95 0.35 0
160 1 0.983333 0.35 0
196 1 0.883333 0.45 0
197 1 0.9 0.4 0
198 1 0.933333 0.4 0
199 1 0.95 0.45 0
200 1 0.983333 0.45 0
515 1 0.883333 0.25 0.664
516 1 0.916667 0.25 0.664
519 1 0.983333 0.25 0.664
555 1 0.883333 0.35 0.664
556 1 0.916667 0.35 0.664
557 1 0.933333 0.3 0.664
558 1 0.966667 0.3 0.664
559 1 0.983333 0.35 0.664
595 1 0.883333 0.45 0.664
596 1 0.916667 0.45 0.664
597 1 0.933333 0.4 0.664
598 1 0.966667 0.4 0.664
599 1 0.983333 0.45 0.664
201 1 0 0.5 0
202 1 0.0333333 0.5 0
203 1 0.05 0.55 0
204 1 0.0833333 0.55 0
205 1 0.1 0.5 0
241 1 0 0.6 0
242 1 0.0333333 0.6 0
243 1 0.05 0.65 0
244 1 0.0833333 0.65 0
245 1 0.1 0.6 0
281 1 0 0.7 0
282 1 0.0333333 0.7 0
283 1 0.05 0.75 0
284 1 0.0833333 0.75 0
285 1 0.1 0.7 0
601 1 0.0333333 0.5 0.664
602 1 0.0666667 0.5 0.664
603 1 0.0833333 0.55 0.664
604 1 0.116667 0.55 0.664
640 1 0.0166667 0.55 0.664
641 1 0.0333333 0.6 0.664
642 1 0.0666667 0.6 0.664
643 1 0.0833333 0.65 0.664
644 1 0.116667 0.65 0.664
680 1 0.0166667 0.65 0.664
681 1 0.0333333 0.7 0.664
682 1 0.0666667 0.7 0.664
683 1 0.0833333 0.75 0.664
684 1 0.116667 0.75 0.664
720 1 0.0166667 0.75 0.664
206 1 0.133333 0.5 0
207 1 0.15 0.55 0
208 1 0.183333 0.55 0
209 1 0.2 0.5 0
210 1 0.233333 0.5 0
246 1 0.133333 0.6 0
247 1 0.15 0.65 0
248 1 0.183333 0.65 0
249 1 0.2 0.6 0
250 1 0.233333 0.6 0
286 1 0.133333 0.7 0
287 1 0.15 0.75 0
288 1 0.183333 0.75 0
289 1 0.2 0.7 0
290 1 0.233333 0.7 0
605 1 0.133333 0.5 0.664
606 1 0.166667 0.5 0.664
607 1 0.183333 0.55 0.664
608 1 0.216667 0.55 0.664
609 1 0.233333 0.5 0.664
645 1 0.133333 0.6 0.664
646 1 0.166667 0.6 0.664
647 1 0.183333 0.65 0.664
648 1 0.216667 0.65 0.664
649 1 0.233333 0.6 0.664
685 1 0.133333 0.7 0.664
686 1 0.166667 0.7 0.664
687 1 0.183333 0.75 0.664
688 1 0.216667 0.75 0.664
689 1 0.233333 0.7 0.664
211 1 0.25 0.55 0
212 1 0.283333 0.55 0
213 1 0.3 0.5 0
214 1 0.333333 0.5 0
215 1 0.35 0.55 0
251 1 0.25 0.65 0
252 1 0.283333 0.65 0
253 1 0.3 0.6 0
254 1 0.333333 0.6 0
255 1 0.35 0.65 0
291 1 0.25 0.75 0
292 1 0.283333 0.75 0
293 1 0.3 0.7 0
294 1 0.333333 0.7 0
295 1 0.35 0.75 0
610 1 0.266667 0.5 0.664
611 1 0.283333 0.55 0.664
612 1 0.316667 0.55 0.664
613 1 0.333333 0.5 0.664
614 1 0.366667 0.5 0.664
650 1 0.266667 0.6 0.664
651 1 0.283333 0.65 0.664
652 1 0.316667 0.65 0.664
653 1 0.333333 0.6 0.664
654 1 0.366667 0.6 0.664
690 1 0.266667 0.7 0.664
691 1 0.283333 0.75 0.664
692 1 0.316667 0.75 0.664
693 1 0.333333 0.7 0.664
694 1 0.366667 0.7 0.664
216 1 0.383333 0.55 0
217 1 0.4 0.5 0
218 1 0.433333 0.5 0
219 1 0.45 0.55 0
220 1 0.483333 0.55 0
256 1 0.383333 0.65 0
257 1 0.4 0.6 0
258 1 0.433333 0.6 0
259 1 0.45 0.65 0
260 1 0.483333 0.65 0
296 1 0.383333 0.75 0
297 1 0.4 0.7 0
298 1 0.433333 0.7 0
299 1 0.45 0.75 0
300 1 0.483333 0.75 0
615 1 0.383333 0.55 0.664
616 1 0.416667 0.55 0.664
617 1 0.433333 0.5 0.664
618 1 0.466667 0.5 0.664
619 1 0.483333 0.55 0.664
655 1 0.383333 0.65 0.664
656 1 0.416667 0.65 0.664
657 1 0.433333 0.6 0.664
658 1 0.466667 0.6 0.664
659 1 0.483333 0.65 0.664
695 1 0.383333 0.75 0.664
696 1 0.416667 0.75 0.664
697 1 0.433333 0.7 0.664
698 1 0.466667 0.7 0.664
699 1 0.483333 0.75 0.664
221 1 0.5 0.5 0
222 1 0.533333 0.5 0
223 1 0.55 0.55 0
224 1 0.583333 0.55 0
225 1 0.6 0.5 0
261 1 0.5 0.6 0
262 1 0.533333 0.6 0
263 1 0.55 0.65 0
264 1 0.583333 0.65 0
265 1 0.6 0.6 0
301 1 0.5 0.7 0
302 1 0.533333 0.7 0
303 1 0.55 0.75 0
304 1 0.583333 0.75 0
305 1 0.6 0.7 0
620 1 0.516667 0.55 0.664
621 1 0.533333 0.5 0.664
622 1 0.566667 0.5 0.664
623 1 0.583333 0.55 0.664
624 1 0.616667 0.55 0.664
660 1 0.516667 0.65 0.664
661 1 0.533333 0.6 0.664
662 1 0.566667 0.6 0.664
663 1 0.583333 0.65 0.664
664 1 0.616667 0.65 0.664
700 1 0.516667 0.75 0.664
701 1 0.533333 0.7 0.664
702 1 0.566667 0.7 0.664
703 1 0.583333 0.75 0.664
704 1 0.616667 0.75 0.664
226 1 0.633333 0.5 0
227 1 0.65 0.55 0
228 1 0.683333 0.55 0
229 1 0.7 0.5 0
230 1 0.733333 0.5 0
266 1 0.633333 0.6 0
267 1 0.65 0.65 0
268 1 0.683333 0.65 0
269 1 0.7 0.6 0
270 1 0.733333 0.6 0
306 1 0.633333 0.7 0
307 1 0.65 0.75 0
308 1 0.683333 0.75 0
309 1 0.7 0.7 0
310 1 0.733333 0.7 0
625 1 0.633333 0.5 0.664
626 1 0.666667 0.5 0.664
627 1 0.683333 0.55 0.664
628 1 0.716667 0.55 0.664
629 1 0.733333 0.5 0.664
665 1 0.633333 0.6 0.664
666 1 0.666667 0.6 0.664
667 1 0.683333 0.65 0.664
668 1 0.716667 0.65 0.664
669 1 0.733333 0.6 0.664
705 1 0.633333 0.7 0.664
706 1 0.666667 0.7 0.664
707 1 0.683333 0.75 0.664
708 1 0.716667 0.75 0.664
709 1 0.733333 0.7 0.664
231 1 0.75 0.55 0
232 1 0.783333 0.55 0
233 1 0.8 0.5 0
234 1 0.833333 0.5 0
235 1 0.85 0.55 0
271 1 0.75 0.65 0
272 1 0.783333 0.65 0
273 1 0.8 0.6 0
274 1 0.833333 0.6 0
275 1 0.85 0.65 0
311 1 0.75 0.75 0
312 1 0.783333 0.75 0
313 1 0.8 0.7 0
314 1 0.833333 0.7 0
315 1 0.85 0.75 0
630 1 0.766667 0.5 0.664
631 1 0.783333 0.55 0.664
632 1 0.816667 0.55 0.664
633 1 0.833333 0.5 0.664
634 1 0.866667 0.5 0.664
670 1 0.766667 0.6 0.664
671 1 0.783333 0.65 0.664
672 1 0.816667 0.65 0.664
673 1 0.833333 0.6 0.664
674 1 0.866667 0.6 0.664
710 1 0.766667 0.7 0.664
711 1 0.783333 0.75 0.664
712 1 0.816667 0.75 0.664
713 1 0.833333 0.7 0.664
714 1 0.866667 0.7 0.664
236 1 0.883333 0.55 0
237 1 0.9 0.5 0
238 1 0.933333 0.5 0
239 1 0.95 0.55 0
240 1 0.983333 0.55 0
276 1 0.883333 0.65 0
277 1 0.9 0.6 0
278 1 0.933333 0.6 0
279 1 0.95 0.65 0
280 1 0.983333 0.65 0
316 1 0.883333 0.75 0
317 1 0.9 0.7 0
318 1 0.933333 0.7 0
319 1 0.95 0.75 0
320 1 0.983333 0.75 0
635 1 0.883333 0.55 0.664
636 1 0.916667 0.55 0.664
637 1 0.933333 0.5 0.664
638 1 0.966667 0.5 0.664
639 1 0.983333 0.55 0.664
675 1 0.883333 0.65 0.664
676 1 0.916667 0.65 0.664
677 1 0.933333 0.6 0.664
678 1 0.966667 0.6 0.664
679 1 0.983333 0.65 0.664
715 1 0.883333 0.75 0.664
716 1 0.916667 0.75 0.664
717 1 0.933333 0.7 0.664
718 1 0.966667 0.7 0.664
719 1 0.983333 0.75 0.664
321 1 0 0.8 0
322 1 0.0333333 0.8 0
323 1 0.05 0.85 0
324 1 0.0833333 0.85 0
325 1 0.1 0.8 0
361 1 0 0.9 0
362 1 0.0333333 0.9 0
363 1 0.05 0.95 0
364 1 0.0833333 0.95 0
365 1 0.1 0.9 0
721 1 0.0333333 0.8 0.664
722 1 0.0666667 0.8 0.664
723 1 0.0833333 0.85 0.664
724 1 0.116667 0.85 0.664
760 1 0.0166667 0.85 0.664
761 1 0.0333333 0.9 0.664
762 1 0.0666667 0.9 0.664
763 1 0.0833333 0.95 0.664
764 1 0.116667 0.95 0.664
800 1 0.0166667 0.95 0.664
326 1 0.133333 0.8 0
327 1 0.15 0.85 0
328 1 0.183333 0.85 0
329 1 0.2 0.8 0
330 1 0.233333 0.8 0
366 1 0.133333 0.9 0
367 1 0.15 0.95 0
368 1 0.183333 0.95 0
369 1 0.2 0.9 0
370 1 0.233333 0.9 0
725 1 0.133333 0.8 0.664
726 1 0.166667 0.8 0.664
727 1 0.183333 0.85 0.664
728 1 0.216667 0.85 0.664
729 1 0.233333 0.8 0.664
765 1 0.133333 0.9 0.664
766 1 0.166667 0.9 0.664
767 1 0.183333 0.95 0.664
768 1 0.216667 0.95 0.664
769 1 0.233333 0.9 0.664
331 1 0.25 0.85 0
332 1 0.283333 0.85 0
333 1 0.3 0.8 0
334 1 0.333333 0.8 0
335 1 0.35 0.85 0
371 1 0.25 0.95 0
372 1 0.283333 0.95 0
373 1 0.3 0.9 0
374 1 0.333333 0.9 0
375 1 0.35 0.95 0
730 1 0.266667 0.8 0.664
731 1 0.283333 0.85 0.664
732 1 0.316667 0.85 0.664
733 1 0.333333 0.8 0.664
734 1 0.366667 0.8 0.664
770 1 0.266667 0.9 0.664
771 1 0.283333 0.95 0.664
772 1 0.316667 0.95 0.664
773 1 0.333333 0.9 0.664
774 1 0.366667 0.9 0.664
336 1 0.383333 0.85 0
337 1 0.4 0.8 0
338 1 0.433333 0.8 0
339 1 0.45 0.85 0
340 1 0.483333 0.85 0
376 1 0.383333 0.95 0
377 1 0.4 0.9 0
378 1 0.433333 0.9 0
379 1 0.45 0.95 0
380 1 0.483333 0.95 0
735 1 0.383333 0.85 0.664
736 1 0.416667 0.85 0.664
737 1 0.433333 0.8 0.664
738 1 0.466667 0.8 0.664
739 1 0.483333 0.85 0.664
775 1 0.383333 0.95 0.664
776 1 0.416667 0.95 0.664
777 1 0.433333 0.9 0.664
778 1 0.466667 0.9 0.664
779 1 0.483333 0.95 0.664
341 1 0.5 0.8 0
342 1 0.533333 0.8 0
343 1 0.55 0.85 0
344 1 0.583333 0.85 0
345 1 0.6 0.8 0
381 1 0.5 0.9 0
382 1 0.533333 0.9 0
383 1 0.55 0.95 0
384 1 0.583333 0.95 0
385 1 0.6 0.9 0
740 1 0.516667 0.85 0.664
741 1 0.533333 0.8 0.664
742 1 0.566667 0.8 0.664
743 1 0.583333 0.85 0.664
744 1 0.616667 0.85 0.664
780 1 0.516667 0.95 0.664
781 1 0.533333 0.9 0.664
782 1 0.566667 0.9 0.664
783 1 0.583333 0.95 0.664
784 1 0.616667 0.95 0.664
346 1 0.633333 0.8 0
347 1 0.65 0.85 0
348 1 0.683333 0.85 0
349 1 0.7 0.8 0
350 1 0.733333 0.8 0
386 1 0.633333 0.9 0
387 1 0.65 0.95 0
388 1 0.683333 0.95 0
389 1 0.7 0.9 0
390 1 0.733333 0.9 0
745 1 0.633333 0.8 0.664
746 1 0.666667 0.8 0.664
747 1 0.683333 0.85 0.664
748 1 0.716667 0.85 0.664
749 1 0.733333 0.8 0.664
785 1 0.633333 0.9 0.664
786 1 0.666667 0.9 0.664
787 1 0.683333 0.95 0.664
788 1 0.716667 0.95 0.664
789 1 0.733333 0.9 0.664
351 1 0.75 0.85 0
352 1 0.783333 0.85 0
353 1 0.8 0.8 0
354 1 0.833333 0.8 0
355 1 0.85 0.85 0
391 1 0.75 0.95 0
392 1 0.783333 0.95 0
393 1 0.8 0.9 0
394 1 0.833333 0.9 0
395 1 0.85 0.95 0
750 1 0.766667 0.8 0.664
751 1 0.783333 0.85 0.664
752 1 0.816667 0.85 0.664
753 1 0.833333 0.8 0.664
754 1 0.866667 0.8 0.664
790 1 0.766667 0.9 0.664
791 1 0.783333 0.95 0.664
792 1 0.816667 0.95 0.664
793 1 0.833333 0.9 0.664
794 1 0.866667 0.9 0.664
356 1 0.883333 0.85 0
357 1 0.9 0.8 0
358 1 0.933333 0.8 0
359 1 0.95 0.85 0
360 1 0.983333 0.85 0
396 1 0.883333 0.95 0
397 1 0.9 0.9 0
398 1 0.933333 0.9 0
399 1 0.95 0.95 0
400 1 0.983333 0.95 0
755 1 0.883333 0.85 0.664
756 1 0.916667 0.85 0.664
757 1 0.933333 0.8 0.664
758 1 0.966667 0.8 0.664
759 1 0.983333 0.85 0.664
795 1 0.883333 0.95 0.664
796 1 0.916667 0.95 0.664
797 1 0.933333 0.9 0.664
798 1 0.966667 0.9 0.664
799 1 0.983333 0.95 0.664
