800
Atoms. Timestep: 0
1 0 0 0
1 1.42 0 0
1 2.13 1.22972 0
1 3.55 1.22972 0
1 4.26 0 0
1 5.68 0 0
1 6.39 1.22972 0
1 7.81 1.22972 0
1 8.52 0 0
1 9.94 0 0
1 10.65 1.22972 0
1 12.07 1.22972 0
1 12.78 0 0
1 14.2 0 0
1 14.91 1.22972 0
1 16.33 1.22972 0
1 17.04 0 0
1 18.46 0 0
1 19.17 1.22972 0
1 20.59 1.22972 0
1 21.3 0 0
1 22.72 0 0
1 23.43 1.22972 0
1 24.85 1.22972 0
1 25.56 0 0
1 26.98 0 0
1 27.69 1.22972 0
1 29.11 1.22972 0
1 29.82 0 0
1 31.24 0 0
1 31.95 1.22972 0
1 33.37 1.22972 0
1 34.08 0 0
1 35.5 0 0
1 36.21 1.22972 0
1 37.63 1.22972 0
1 38.34 0 0
1 39.76 0 0
1 40.47 1.22972 0
1 41.89 1.22972 0
1 0 2.45944 0
1 1.42 2.45944 0
1 2.13 3.68916 0
1 3.55 3.68916 0
1 4.26 2.45944 0
1 5.68 2.45944 0
1 6.39 3.68916 0
1 7.81 3.68916 0
1 8.52 2.45944 0
1 9.94 2.45944 0
1 10.65 3.68916 0
1 12.07 3.68916 0
1 12.78 2.45944 0
1 14.2 2.45944 0
1 14.91 3.68916 0
1 16.33 3.68916 0
1 17.04 2.45944 0
1 18.46 2.45944 0
1 19.17 3.68916 0
1 20.59 3.68916 0
1 21.3 2.45944 0
1 22.72 2.45944 0
1 23.43 3.68916 0
1 24.85 3.68916 0
1 25.56 2.45944 0
1 26.98 2.45944 0
1 27.69 3.68916 0
1 29.11 3.68916 0
1 29.82 2.45944 0
1 31.24 2.45944 0
1 31.95 3.68916 0
1 33.37 3.68916 0
1 34.08 2.45944 0
1 35.5 2.45944 0
1 36.21 3.68916 0
1 37.63 3.68916 0
1 38.34 2.45944 0
1 39.76 2.45944 0
1 40.47 3.68916 0
1 41.89 3.68916 0
1 0 4.91888 0
1 1.42 4.91888 0
1 2.13 6.1486 0
1 3.55 6.1486 0
1 4.26 4.91888 0
1 5.68 4.91888 0
1 6.39 6.1486 0
1 7.81 6.1486 0
1 8.52 4.91888 0
1 9.94 4.91888 0
1 10.65 6.1486 0
1 12.07 6.1486 0
1 12.78 4.91888 0
1 14.2 4.91888 0
1 14.91 6.1486 0
1 16.33 6.1486 0
1 17.04 4.91888 0
1 18.46 4.91888 0
1 19.17 6.1486 0
1 20.59 6.1486 0
1 21.3 4.91888 0
1 22.72 4.91888 0
1 23.43 6.1486 0
1 24.85 6.1486 0
1 25.56 4.91888 0
1 26.98 4.91888 0
1 27.69 6.1486 0
1 29.11 6.1486 0
1 29.82 4.91888 0
1 31.24 4.91888 0
1 31.95 6.1486 0
1 33.37 6.1486 0
1 34.08 4.91888 0
1 35.5 4.91888 0
1 36.21 6.1486 0
1 37.63 6.1486 0
1 38.34 4.91888 0
1 39.76 4.91888 0
1 40.47 6.1486 0
1 41.89 6.1486 0
1 0 7.37832 0
1 1.42 7.37832 0
1 2.13 8.60804 0
1 3.55 8.60804 0
1 4.26 7.37832 0
1 5.68 7.37832 0
1 6.39 8.60804 0
1 7.81 8.60804 0
1 8.52 7.37832 0
1 9.94 7.37832 0
1 10.65 8.60804 0
1 12.07 8.60804 0
1 12.78 7.37832 0
1 14.2 7.37832 0
1 14.91 8.60804 0
1 16.33 8.60804 0
1 17.04 7.37832 0
1 18.46 7.37832 0
1 19.17 8.60804 0
1 20.59 8.60804 0
1 21.3 7.37832 0
1 22.72 7.37832 0
1 23.43 8.60804 0
1 24.85 8.60804 0
1 25.56 7.37832 0
1 26.98 7.37832 0
1 27.69 8.60804 0
1 29.11 8.60804 0
1 29.82 7.37832 0
1 31.24 7.37832 0
1 31.95 8.60804 0
1 33.37 8.60804 0
1 34.08 7.37832 0
1 35.5 7.37832 0
1 36.21 8.60804 0
1 37.63 8.60804 0
1 38.34 7.37832 0
1 39.76 7.37832 0
1 40.47 8.60804 0
1 41.89 8.60804 0
1 0 9.83776 0
1 1.42 9.83776 0
1 2.13 11.0675 0
1 3.55 11.0675 0
1 4.26 9.83776 0
1 5.68 9.83776 0
1 6.39 11.0675 0
1 7.81 11.0675 0
1 8.52 9.83776 0
1 9.94 9.83776 0
1 10.65 11.0675 0
1 12.07 11.0675 0
1 12.78 9.83776 0
1 14.2 9.83776 0
1 14.91 11.0675 0
1 16.33 11.0675 0
1 17.04 9.83776 0
1 18.46 9.83776 0
1 19.17 11.0675 0
1 20.59 11.0675 0
1 21.3 9.83776 0
1 22.72 9.83776 0
1 23.43 11.0675 0
1 24.85 11.0675 0
1 25.56 9.83776 0
1 26.98 9.83776 0
1 27.69 11.0675 0
1 29.11 11.0675 0
1 29.82 9.83776 0
1 31.24 9.83776 0
1 31.95 11.0675 0
1 33.37 11.0675 0
1 34.08 9.83776 0
1 35.5 9.83776 0
1 36.21 11.0675 0
1 37.63 11.0675 0
1 38.34 9.83776 0
1 39.76 9.83776 0
1 40.47 11.0675 0
1 41.89 11.0675 0
1 0 12.2972 0
1 1.42 12.2972 0
1 2.13 13.5269 0
1 3.55 13.5269 0
1 4.26 12.2972 0
1 5.68 12.2972 0
1 6.39 13.5269 0
1 7.81 13.5269 0
1 8.52 12.2972 0
1 9.94 12.2972 0
1 10.65 13.5269 0
1 12.07 13.5269 0
1 12.78 12.2972 0
1 14.2 12.2972 0
1 14.91 13.5269 0
1 16.33 13.5269 0
1 17.04 12.2972 0
1 18.46 12.2972 0
1 19.17 13.5269 0
1 20.59 13.5269 0
1 21.3 12.2972 0
1 22.72 12.2972 0
1 23.43 13.5269 0
1 24.85 13.5269 0
1 25.56 12.2972 0
1 26.98 12.2972 0
1 27.69 13.5269 0
1 29.11 13.5269 0
1 29.82 12.2972 0
1 31.24 12.2972 0
1 31.95 13.5269 0
1 33.37 13.5269 0
1 34.08 12.2972 0
1 35.5 12.2972 0
1 36.21 13.5269 0
1 37.63 13.5269 0
1 38.34 12.2972 0
1 39.76 12.2972 0
1 40.47 13.5269 0
1 41.89 13.5269 0
1 0 14.7566 0
1 1.42 14.7566 0
1 2.13 15.9864 0
1 3.55 15.9864 0
1 4.26 14.7566 0
1 5.68 14.7566 0
1 6.39 15.9864 0
1 7.81 15.9864 0
1 8.52 14.7566 0
1 9.94 14.7566 0
1 10.65 15.9864 0
1 12.07 15.9864 0
1 12.78 14.7566 0
1 14.2 14.7566 0
1 14.91 15.9864 0
1 16.33 15.9864 0
1 17.04 14.7566 0
1 18.46 14.7566 0
1 19.17 15.9864 0
1 20.59 15.9864 0
1 21.3 14.7566 0
1 22.72 14.7566 0
1 23.43 15.9864 0
1 24.85 15.9864 0
1 25.56 14.7566 0
1 26.98 14.7566 0
1 27.69 15.9864 0
1 29.11 15.9864 0
1 29.82 14.7566 0
1 31.24 14.7566 0
1 31.95 15.9864 0
1 33.37 15.9864 0
1 34.08 14.7566 0
1 35.5 14.7566 0
1 36.21 15.9864 0
1 37.63 15.9864 0
1 38.34 14.7566 0
1 39.76 14.7566 0
1 40.47 15.9864 0
1 41.89 15.9864 0
1 0 17.2161 0
1 1.42 17.2161 0
1 2.13 18.4458 0
1 3.55 18.4458 0
1 4.26 17.2161 0
1 5.68 17.2161 0
1 6.39 18.4458 0
1 7.81 18.4458 0
1 8.52 17.2161 0
1 9.94 17.2161 0
1 10.65 18.4458 0
1 12.07 18.4458 0
1 12.78 17.2161 0
1 14.2 17.2161 0
1 14.91 18.4458 0
1 16.33 18.4458 0
1 17.04 17.2161 0
1 18.46 17.2161 0
1 19.17 18.4458 0
1 20.59 18.4458 0
1 21.3 17.2161 0
1 22.72 17.2161 0
1 23.43 18.4458 0
1 24.85 18.4458 0
1 25.56 17.2161 0
1 26.98 17.2161 0
1 27.69 18.4458 0
1 29.11 18.4458 0
1 29.82 17.2161 0
1 31.24 17.2161 0
1 31.95 18.4458 0
1 33.37 18.4458 0
1 34.08 17.2161 0
1 35.5 17.2161 0
1 36.21 18.4458 0
1 37.63 18.4458 0
1 38.34 17.2161 0
1 39.76 17.2161 0
1 40.47 18.4458 0
1 41.89 18.4458 0
1 0 19.6755 0
1 1.42 19.6755 0
1 2.13 20.9052 0
1 3.55 20.9052 0
1 4.26 19.6755 0
1 5.68 19.6755 0
1 6.39 20.9052 0
1 7.81 20.9052 0
1 8.52 19.6755 0
1 9.94 19.6755 0
1 10.65 20.9052 0
1 12.07 20.9052 0
1 12.78 19.6755 0
1 14.2 19.6755 0
1 14.91 20.9052 0
1 16.33 20.9052 0
1 17.04 19.6755 0
1 18.46 19.6755 0
1 19.17 20.9052 0
1 20.59 20.9052 0
1 21.3 19.6755 0
1 22.72 19.6755 0
1 23.43 20.9052 0
1 24.85 20.9052 0
1 25.56 19.6755 0
1 26.98 19.6755 0
1 27.69 20.9052 0
1 29.11 20.9052 0
1 29.82 19.6755 0
1 31.24 19.6755 0
1 31.95 20.9052 0
1 33.37 20.9052 0
1 34.08 19.6755 0
1 35.5 19.6755 0
1 36.21 20.9052 0
1 37.63 20.9052 0
1 38.34 19.6755 0
1 39.76 19.6755 0
1 40.47 20.9052 0
1 41.89 20.9052 0
1 0 22.135 0
1 1.42 22.135 0
1 2.13 23.3647 0
1 3.55 23.3647 0
1 4.26 22.135 0
1 5.68 22.135 0
1 6.39 23.3647 0
1 7.81 23.3647 0
1 8.52 22.135 0
1 9.94 22.135 0
1 10.65 23.3647 0
1 12.07 23.3647 0
1 12.78 22.135 0
1 14.2 22.135 0
1 14.91 23.3647 0
1 16.33 23.3647 0
1 17.04 22.135 0
1 18.46 22.135 0
1 19.17 23.3647 0
1 20.59 23.3647 0
1 21.3 22.135 0
1 22.72 22.135 0
1 23.43 23.3647 0
1 24.85 23.3647 0
1 25.56 22.135 0
1 26.98 22.135 0
1 27.69 23.3647 0
1 29.11 23.3647 0
1 29.82 22.135 0
1 31.24 22.135 0
1 31.95 23.3647 0
1 33.37 23.3647 0
1 34.08 22.135 0
1 35.5 22.135 0
1 36.21 23.3647 0
1 37.63 23.3647 0
1 38.34 22.135 0
1 39.76 22.135 0
1 40.47 23.3647 0
1 41.89 23.3647 0
1 1.42 0 3.32
1 2.84 0 3.32
1 3.55 1.22972 3.32
1 4.97 1.22972 3.32
1 5.68 0 3.32
1 7.1 0 3.32
1 7.81 1.22972 3.32
1 9.23 1.22972 3.32
1 9.94 0 3.32
1 11.36 0 3.32
1 12.07 1.22972 3.32
1 13.49 1.22972 3.32
1 14.2 0 3.32
1 15.62 0 3.32
1 16.33 1.22972 3.32
1 17.75 1.22972 3.32
1 18.46 0 3.32
1 19.88 0 3.32
1 20.59 1.22972 3.32
1 22.01 1.22972 3.32
1 22.72 0 3.32
1 24.14 0 3.32
1 24.85 1.22972 3.32
1 26.27 1.22972 3.32
1 26.98 0 3.32
1 28.4 0 3.32
1 29.11 1.22972 3.32
1 30.53 1.22972 3.32
1 31.24 0 3.32
1 32.66 0 3.32
1 33.37 1.22972 3.32
1 34.79 1.22972 3.32
1 35.5 0 3.32
1 36.92 0 3.32
1 37.63 1.22972 3.32
1 39.05 1.22972 3.32
1 39.76 0 3.32
1 41.18 0 3.32
1 41.89 1.22972 3.32
1 0.71 1.22972 3.32
1 1.42 2.45944 3.32
1 2.84 2.45944 3.32
1 3.55 3.68916 3.32
1 4.97 3.68916 3.32
1 5.68 2.45944 3.32
1 7.1 2.45944 3.32
1 7.81 3.68916 3.32
1 9.23 3.68916 3.32
1 9.94 2.45944 3.32
1 11.36 2.45944 3.32
1 12.07 3.68916 3.32
1 13.49 3.68916 3.32
1 14.2 2.45944 3.32
1 15.62 2.45944 3.32
1 16.33 3.68916 3.32
1 17.75 3.68916 3.32
1 18.46 2.45944 3.32
1 19.88 2.45944 3.32
1 20.59 3.68916 3.32
1 22.01 3.68916 3.32
1 22.72 2.45944 3.32
1 24.14 2.45944 3.32
1 24.85 3.68916 3.32
1 26.27 3.68916 3.32
1 26.98 2.45944 3.32
1 28.4 2.45944 3.32
1 29.11 3.68916 3.32
1 30.53 3.68916 3.32
1 31.24 2.45944 3.32
1 32.66 2.45944 3.32
1 33.37 3.68916 3.32
1 34.79 3.68916 3.32
1 35.5 2.45944 3.32
1 36.92 2.45944 3.32
1 37.63 3.68916 3.32
1 39.05 3.68916 3.32
1 39.76 2.45944 3.32
1 41.18 2.45944 3.32
1 41.89 3.68916 3.32
1 0.71 3.68916 3.32
1 1.42 4.91888 3.32
1 2.84 4.91888 3.32
1 3.55 6.1486 3.32
1 4.97 6.1486 3.32
1 5.68 4.91888 3.32
1 7.1 4.91888 3.32
1 7.81 6.1486 3.32
1 9.23 6.1486 3.32
1 9.94 4.91888 3.32
1 11.36 4.91888 3.32
1 12.07 6.1486 3.32
1 13.49 6.1486 3.32
1 14.2 4.91888 3.32
1 15.62 4.91888 3.32
1 16.33 6.1486 3.32
1 17.75 6.1486 3.32
1 18.46 4.91888 3.32
1 19.88 4.91888 3.32
1 20.59 6.1486 3.32
1 22.01 6.1486 3.32
1 22.72 4.91888 3.32
1 24.14 4.91888 3.32
1 24.85 6.1486 3.32
1 26.27 6.1486 3.32
1 26.98 4.91888 3.32
1 28.4 4.91888 3.32
1 29.11 6.1486 3.32
1 30.53 6.1486 3.32
1 31.24 4.91888 3.32
1 32.66 4.91888 3.32
1 33.37 6.1486 3.32
1 34.79 6.1486 3.32
1 35.5 4.91888 3.32
1 36.92 4.91888 3.32
1 37.63 6.1486 3.32
1 39.05 6.1486 3.32
1 39.76 4.91888 3.32
1 41.18 4.91888 3.32
1 41.89 6.1486 3.32
1 0.71 6.1486 3.32
1 1.42 7.37832 3.32
1 2.84 7.37832 3.32
1 3.55 8.60804 3.32
1 4.97 8.60804 3.32
1 5.68 7.37832 3.32
1 7.1 7.37832 3.32
1 7.81 8.60804 3.32
1 9.23 8.60804 3.32
1 9.94 7.37832 3.32
1 11.36 7.37832 3.32
1 12.07 8.60804 3.32
1 13.49 8.60804 3.32
1 14.2 7.37832 3.32
1 15.62 7.37832 3.32
1 16.33 8.60804 3.32
1 17.75 8.60804 3.32
1 18.46 7.37832 3.32
1 19.88 7.37832 3.32
1 20.59 8.60804 3.32
1 22.01 8.60804 3.32
1 22.72 7.37832 3.32
1 24.14 7.37832 3.32
1 24.85 8.60804 3.32
1 26.27 8.60804 3.32
1 26.98 7.37832 3.32
1 28.4 7.37832 3.32
1 29.11 8.60804 3.32
1 30.53 8.60804 3.32
1 31.24 7.37832 3.32
1 32.66 7.37832 3.32
1 33.37 8.60804 3.32
1 34.79 8.60804 3.32
1 35.5 7.37832 3.32
1 36.92 7.37832 3.32
1 37.63 8.60804 3.32
1 39.05 8.60804 3.32
1 39.76 7.37832 3.32
1 41.18 7.37832 3.32
1 41.89 8.60804 3.32
1 0.71 8.60804 3.32
1 1.42 9.83776 3.32
1 2.84 9.83776 3.32
1 3.55 11.0675 3.32
1 4.97 11.0675 3.32
1 5.68 9.83776 3.32
1 7.1 9.83776 3.32
1 7.81 11.0675 3.32
1 9.23 11.0675 3.32
1 9.94 9.83776 3.32
1 11.36 9.83776 3.32
1 12.07 11.0675 3.32
1 13.49 11.0675 3.32
1 14.2 9.83776 3.32
1 15.62 9.83776 3.32
1 16.33 11.0675 3.32
1 17.75 11.0675 3.32
1 18.46 9.83776 3.32
1 19.88 9.83776 3.32
1 20.59 11.0675 3.32
1 22.01 11.0675 3.32
1 22.72 9.83776 3.32
1 24.14 9.83776 3.32
1 24.85 11.0675 3.32
1 26.27 11.0675 3.32
1 26.98 9.83776 3.32
1 28.4 9.83776 3.32
1 29.11 11.0675 3.32
1 30.53 11.0675 3.32
1 31.24 9.83776 3.32
1 32.66 9.83776 3.32
1 33.37 11.0675 3.32
1 34.79 11.0675 3.32
1 35.5 9.83776 3.32
1 36.92 9.83776 3.32
1 37.63 11.0675 3.32
1 39.05 11.0675 3.32
1 39.76 9.83776 3.32
1 41.18 9.83776 3.32
1 41.89 11.0675 3.32
1 0.71 11.0675 3.32
1 1.42 12.2972 3.32
1 2.84 12.2972 3.32
1 3.55 13.5269 3.32
1 4.97 13.5269 3.32
1 5.68 12.2972 3.32
1 7.1 12.2972 3.32
1 7.81 13.5269 3.32
1 9.23 13.5269 3.32
1 9.94 12.2972 3.32
1 11.36 12.2972 3.32
1 12.07 13.5269 3.32
1 13.49 13.5269 3.32
1 14.2 12.2972 3.32
1 15.62 12.2972 3.32
1 16.33 13.5269 3.32
1 17.75 13.5269 3.32
1 18.46 12.2972 3.32
1 19.88 12.2972 3.32
1 20.59 13.5269 3.32
1 22.01 13.5269 3.32
1 22.72 12.2972 3.32
1 24.14 12.2972 3.32
1 24.85 13.5269 3.32
1 26.27 13.5269 3.32
1 26.98 12.2972 3.32
1 28.4 12.2972 3.32
1 29.11 13.5269 3.32
1 30.53 13.5269 3.32
1 31.24 12.2972 3.32
1 32.66 12.2972 3.32
1 33.37 13.5269 3.32
1 34.79 13.5269 3.32
1 35.5 12.2972 3.32
1 36.92 12.2972 3.32
1 37.63 13.5269 3.32
1 39.05 13.5269 3.32
1 39.76 12.2972 3.32
1 41.18 12.2972 3.32
1 41.89 13.5269 3.32
1 0.71 13.5269 3.32
1 1.42 14.7566 3.32
1 2.84 14.7566 3.32
1 3.55 15.9864 3.32
1 4.97 15.9864 3.32
1 5.68 14.7566 3.32
1 7.1 14.7566 3.32
1 7.81 15.9864 3.32
1 9.23 15.9864 3.32
1 9.94 14.7566 3.32
1 11.36 14.7566 3.32
1 12.07 15.9864 3.32
1 13.49 15.9864 3.32
1 14.2 14.7566 3.32
1 15.62 14.7566 3.32
1 16.33 15.9864 3.32
1 17.75 15.9864 3.32
1 18.46 14.7566 3.32
1 19.88 14.7566 3.32
1 20.59 15.9864 3.32
1 22.01 15.9864 3.32
1 22.72 14.7566 3.32
1 24.14 14.7566 3.32
1 24.85 15.9864 3.32
1 26.27 15.9864 3.32
1 26.98 14.7566 3.32
1 28.4 14.7566 3.32
1 29.11 15.9864 3.32
1 30.53 15.9864 3.32
1 31.24 14.7566 3.32
1 32.66 14.7566 3.32
1 33.37 15.9864 3.32
1 34.79 15.9864 3.32
1 35.5 14.7566 3.32
1 36.92 14.7566 3.32
1 37.63 15.9864 3.32
1 39.05 15.9864 3.32
1 39.76 14.7566 3.32
1 41.18 14.7566 3.32
1 41.89 15.9864 3.32
1 0.71 15.9864 3.32
1 1.42 17.2161 3.32
1 2.84 17.2161 3.32
1 3.55 18.4458 3.32
1 4.97 18.4458 3.32
1 5.68 17.2161 3.32
1 7.1 17.2161 3.32
1 7.81 18.4458 3.32
1 9.23 18.4458 3.32
1 9.94 17.2161 3.32
1 11.36 17.2161 3.32
1 12.07 18.4458 3.32
1 13.49 18.4458 3.32
1 14.2 17.2161 3.32
1 15.62 17.2161 3.32
1 16.33 18.4458 3.32
1 17.75 18.4458 3.32
1 18.46 17.2161 3.32
1 19.88 17.2161 3.32
1 20.59 18.4458 3.32
1 22.01 18.4458 3.32
1 22.72 17.2161 3.32
1 24.14 17.2161 3.32
1 24.85 18.4458 3.32
1 26.27 18.4458 3.32
1 26.98 17.2161 3.32
1 28.4 17.2161 3.32
1 29.11 18.4458 3.32
1 30.53 18.4458 3.32
1 31.24 17.2161 3.32
1 32.66 17.2161 3.32
1 33.37 18.4458 3.32
1 34.79 18.4458 3.32
1 35.5 17.2161 3.32
1 36.92 17.2161 3.32
1 37.63 18.4458 3.32
1 39.05 18.4458 3.32
1 39.76 17.2161 3.32
1 41.18 17.2161 3.32
1 41.89 18.4458 3.32
1 0.71 18.4458 3.32
1 1.42 19.6755 3.32
1 2.84 19.6755 3.32
1 3.55 20.9052 3.32
1 4.97 20.9052 3.32
1 5.68 19.6755 3.32
1 7.1 19.6755 3.32
1 7.81 20.9052 3.32
1 9.23 20.9052 3.32
1 9.94 19.6755 3.32
1 11.36 19.6755 3.32
1 12.07 20.9052 3.32
1 13.49 20.9052 3.32
1 14.2 19.6755 3.32
1 15.62 19.6755 3.32
1 16.33 20.9052 3.32
1 17.75 20.9052 3.32
1 18.46 19.6755 3.32
1 19.88 19.6755 3.32
1 20.59 20.9052 3.32
1 22.01 20.9052 3.32
1 22.72 19.6755 3.32
1 24.14 19.6755 3.32
1 24.85 20.9052 3.32
1 26.27 20.9052 3.32
1 26.98 19.6755 3.32
1 28.4 19.6755 3.32
1 29.11 20.9052 3.32
1 30.53 20.9052 3.32
1 31.24 19.6755 3.32
1 32.66 19.6755 3.32
1 33.37 20.9052 3.32
1 34.79 20.9052 3.32
1 35.5 19.6755 3.32
1 36.92 19.6755 3.32
1 37.63 20.9052 3.32
1 39.05 20.9052 3.32
1 39.76 19.6755 3.32
1 41.18 19.6755 3.32
1 41.89 20.9052 3.32
1 0.71 20.9052 3.32
1 1.42 22.135 3.32
1 2.84 22.135 3.32
1 3.55 23.3647 3.32
1 4.97 23.3647 3.32
1 5.68 22.135 3.32
1 7.1 22.135 3.32
1 7.81 23.3647 3.32
1 9.23 23.3647 3.32
1 9.94 22.135 3.32
1 11.36 22.135 3.32
1 12.07 23.3647 3.32
1 13.49 23.3647 3.32
1 14.2 22.135 3.32
1 15.62 22.135 3.32
1 16.33 23.3647 3.32
1 17.75 23.3647 3.32
1 18.46 22.135 3.32
1 19.88 22.135 3.32
1 20.59 23.3647 3.32
1 22.01 23.3647 3.32
1 22.72 22.135 3.32
1 24.14 22.135 3.32
1 24.85 23.3647 3.32
1 26.27 23.3647 3.32
1 26.98 22.135 3.32
1 28.4 22.135 3.32
1 29.11 23.3647 3.32
1 30.53 23.3647 3.32
1 31.24 22.135 3.32
1 32.66 22.135 3.32
1 33.37 23.3647 3.32
1 34.79 23.3647 3.32
1 35.5 22.135 3.32
1 36.92 22.135 3.32
1 37.63 23.3647 3.32
1 39.05 23.3647 3.32
1 39.76 22.135 3.32
1 41.18 22.135 3.32
1 41.89 23.3647 3.32
1 0.71 23.3647 3.32
800
Atoms. Timestep: 100
1 0.135159 24.4489 0.873859
1 1.33024 0.0042913 0.0572378
1 2.08987 1.11714 0.166711
1 3.49332 1.29138 0.221948
1 4.18166 0.0593848 0.266503
1 5.58691 24.5933 0.804247
1 6.45233 1.21808 0.476043
1 7.80412 1.24223 0.413895
1 8.54697 0.0370184 0.620835
1 10.0356 0.0385344 0.361729
1 10.6576 1.1888 0.427787
1 11.9505 1.31614 0.594242
1 12.7994 0.132858 0.637144
1 14.1958 24.6042 0.211355
1 14.9074 1.15292 0.076421
1 16.2543 1.272 0.406589
1 17.1002 0.0895105 1.02909
1 18.3456 0.0489423 0.332971
1 19.0434 1.27795 0.648704
1 20.6013 1.25236 0.838486
1 21.2802 24.5906 0.377562
1 22.575 24.4246 0.748311
1 23.5372 1.04814 0.598646
1 25.0608 1.10429 4.88351
1 25.7329 24.4723 0.0489055
1 27.0412 0.0428657 0.583923
1 27.6108 1.24354 0.0859135
1 29.0198 1.16136 0.119734
1 29.7237 24.5406 0.37782
1 31.1562 24.5459 0.264146
1 31.598 1.23985 1.05406
1 33.0891 1.12339 0.96255
1 34.1779 24.5253 0.324436
1 35.4979 0.196068 0.680825
1 36.2825 1.24305 0.479418
1 37.6427 1.3695 1.15421
1 38.2417 24.5552 0.461717
1 39.7015 0.0108049 0.301229
1 40.4193 1.29273 0.590183
1 42.0598 1.35067 1.15284
1 42.5368 2.63927 0.411183
1 1.39434 2.57359 0.64142
1 2.08236 3.86767 0.475443
1 3.3741 3.7508 0.307953
1 4.08551 2.30276 0.831727
1 5.46255 2.54015 0.955162
1 6.20282 3.7149 0.0202243
1 7.83548 3.71378 4.92492
1 8.45293 2.49512 0.351113
1 9.81987 2.53847 0.911545
1 10.5574 3.85578 0.440557
1 12.0174 3.73561 0.686199
1 12.5839 2.44326 0.148342
1 14.2241 2.48628 0.497169
1 14.6879 3.84591 0.357286
1 16.0428 3.95074 0.304517
1 16.7442 2.63133 0.876788
1 18.0831 2.53284 0.546677
1 18.8377 3.72933 0.524498
1 20.4452 3.81569 4.94674
1 21.3041 2.43434 0.479957
1 22.7269 2.3637 0.48292
1 23.5133 3.55714 0.456712
1 25.0191 3.46733 1.16636
1 25.736 2.17066 0.985228
1 27.1877 2.40887 0.608915
1 27.792 3.5368 0.987505
1 29.2605 3.57636 0.955578
1 29.9769 2.46987 0.0547503
1 31.2118 2.62044 0.690624
1 31.9567 3.63772 0.642075
1 33.3311 3.66385 0.410555
1 34.0137 2.45951 0.424528
1 35.4503 2.53676 0.407922
1 36.3223 3.68419 0.428788
1 37.6794 3.7227 0.187333
1 38.4726 2.85071 0.904057
1 39.8144 2.45813 0.213855
1 40.6791 3.63877 0.164223
1 41.9156 3.72977 0.536432
1 42.5238 4.93474 0.224477
1 1.42334 4.96685 0.314331
1 2.03288 6.12437 0.826263
1 3.65815 6.26955 0.339516
1 4.21182 4.99932 0.287744
1 5.6152 4.91799 0.774152
1 6.37965 6.19649 0.25765
1 7.79815 6.17933 0.609268
1 8.51333 4.99388 0.124131
1 9.96186 4.9681 0.387547
1 10.6359 6.14944 0.455742
1 11.989 6.25891 0.638684
1 12.6751 5.04646 0.507126
1 14.1523 4.98814 0.966495
1 14.9979 6.19901 0.54723
1 16.3793 6.3215 0.516852
1 16.8923 5.12037 0.54513
1 18.2132 5.00386 0.634918
1 19.0947 6.02695 0.354827
1 20.6493 6.02239 0.881531
1 21.389 4.86087 0.516717
1 22.8155 4.80184 0.533225
1 23.4488 6.05495 0.4485
1 24.9181 5.95239 0.862285
1 25.7934 4.66434 0.338394
1 27.0631 4.95255 0.481947
1 27.7455 6.07305 0.515638
1 29.1299 6.10962 0.863955
1 29.8107 5.01831 0.0548763
1 31.1174 5.01434 0.778591
1 32.0302 5.97715 0.316863
1 33.5066 6.06101 0.318259
1 34.1802 4.79034 0.369864
1 35.6247 4.99516 0.700014
1 36.5458 6.33192 0.303193
1 37.8371 6.19987 0.411697
1 38.3409 4.97007 0.298615
1 40.0047 4.8632 0.593429
1 40.5573 6.39424 0.113399
1 42.0353 6.31927 0.441972
1 0.0265342 7.45447 0.464537
1 1.36076 7.45148 0.393599
1 2.00999 8.74758 0.293049
1 3.50177 8.75473 0.645568
1 4.39025 7.49263 0.332583
1 5.72697 7.40549 0.512354
1 6.33493 8.63532 1.05677
1 7.89476 8.64205 0.672312
1 8.35614 7.51185 0.0671398
1 9.8178 7.28015 0.66446
1 10.5244 8.7631 0.431473
1 12.0499 8.65242 0.739554
1 12.7885 7.40356 0.470511
1 14.2332 7.41384 4.92027
1 14.8838 8.72045 0.849067
1 16.3091 8.6709 1.10836
1 16.9755 7.51096 0.440355
1 18.4691 7.30002 0.917253
1 19.1243 8.57533 0.605277
1 20.5241 8.54486 0.694577
1 21.3603 7.31802 0.394685
1 22.7615 7.32096 0.45738
1 23.5101 8.55836 0.880014
1 24.9643 8.50179 0.524891
1 25.6538 7.42205 0.458381
1 27.053 7.31873 0.355745
1 27.7938 8.46258 0.434234
1 28.9913 8.69154 1.03267
1 29.7065 7.36654 0.198291
1 31.3931 7.27974 0.0801743
1 32.1479 8.61625 0.217423
1 33.5339 8.43822 1.06414
1 34.2801 7.17246 0.898907
1 35.7721 7.38234 0.291567
1 36.3955 8.511 0.405032
1 37.73 8.57309 0.526768
1 38.405 7.4085 0.864024
1 39.8405 7.4398 0.554099
1 40.5864 8.59186 0.47396
1 41.9702 8.6413 0.487161
1 0.1004 9.86654 0.85084
1 1.41592 9.92847 0.530597
1 2.06806 11.1636 0.40804
1 3.4839 11.1804 0.795377
1 4.50819 9.99429 0.146263
1 5.77488 9.95432 0.537573
1 6.38885 11.0296 0.545036
1 7.84288 11.1263 0.714762
1 8.62557 9.74892 0.447519
1 9.86643 9.87625 0.779009
1 10.6249 11.0697 0.572123
1 12.213 10.9893 0.298747
1 12.913 9.69085 0.514048
1 14.2503 9.84656 0.43828
1 14.9528 11.0492 0.400563
1 16.4392 11.0001 0.754408
1 17.2316 9.74681 0.363985
1 18.4721 9.74348 0.615421
1 19.1089 10.9348 0.63767
1 20.5698 10.9261 0.364341
1 21.4092 9.66506 0.400351
1 22.7169 9.78053 0.809506
1 23.3487 10.8439 0.0509933
1 24.9435 10.9025 0.369846
1 25.715 9.7395 0.575623
1 27.085 9.79019 4.6654
1 27.7809 11.035 0.388777
1 29.3101 10.9552 0.351933
1 30.0469 9.63931 0.13151
1 31.3729 9.81008 0.401813
1 31.8888 11.1313 0.556917
1 33.2179 11.0449 0.747156
1 33.9729 9.81854 0.155803
1 35.177 9.77612 0.819565
1 36.0035 11.1823 0.894953
1 36.7807 10.3071 4.83892
1 38.3559 9.91126 0.197379
1 40.0671 9.85477 0.182871
1 40.7741 10.9629 0.130258
1 42.1447 11.0446 0.686013
1 42.3092 12.4738 1.01101
1 1.21514 12.3004 0.448818
1 1.84295 13.6127 0.504482
1 3.41306 13.5639 0.913188
1 4.31185 12.3303 0.541299
1 5.7845 12.2681 0.3708
1 6.41586 13.4872 0.29223
1 7.87157 13.5015 0.491618
1 8.64236 12.399 0.664739
1 9.91036 12.2082 5.03677
1 10.6504 13.4936 0.524661
1 12.1088 13.4507 0.554902
1 12.9179 12.2633 0.373908
1 14.2895 12.1696 0.692824
1 15.0749 13.4227 0.797809
1 16.5163 13.3889 0.78094
1 17.1739 12.294 0.62648
1 18.4633 12.2426 0.5974
1 19.0336 13.4625 0.596917
1 20.3879 13.4843 0.625356
1 21.0294 12.3479 0.262007
1 22.494 12.2059 0.0336957
1 23.3546 13.4116 0.28407
1 24.9381 13.3575 4.91609
1 25.7424 12.2159 0.0770346
1 27.0758 12.3057 0.513939
1 27.9219 13.3708 0.898217
1 29.2775 13.4959 0.381285
1 29.9067 12.309 4.90223
1 31.007 12.3068 0.865866
1 31.9376 13.4772 0.857164
1 33.3727 13.3921 0.449068
1 34.086 12.5538 1.15393
1 35.4914 12.4708 0.179449
1 36.491 13.3741 0.764614
1 37.6473 13.8705 4.77767
1 38.8507 12.7956 0.175296
1 40.2128 12.5705 0.644545
1 40.7477 13.7547 0.44408
1 42.2425 13.7925 0.41968
1 0.17694 14.9811 0.584933
1 1.45638 15.051 0.453907
1 2.2382 16.0381 0.461282
1 3.72525 16.076 0.988032
1 3.95323 14.7803 0.299911
1 5.66405 14.9431 0.0779694
1 6.47345 16.1978 0.284969
1 7.92943 15.9362 0.875931
1 8.55534 14.5787 0.422739
1 9.92937 14.6719 0.982772
1 10.6189 15.8342 0.438319
1 12.0455 15.7819 0.887956
1 12.8051 14.6365 0.463732
1 14.1702 14.6608 0.548246
1 14.9009 15.8308 0.445888
1 16.4624 15.7504 0.728922
1 17.0646 14.4805 0.267935
1 18.505 14.8852 0.799551
1 19.2372 16.0095 0.302815
1 20.6053 15.8867 0.838277
1 21.2114 14.64 0.576669
1 22.5986 14.6353 0.809918
1 23.6602 15.9867 1.00231
1 24.762 15.8151 0.294434
1 25.7194 14.6356 0.335057
1 27.2203 14.6314 1.0025
1 27.8951 15.5854 4.87475
1 29.303 16.0471 0.347451
1 29.8325 14.7648 0.40299
1 31.2368 14.9406 0.901743
1 32.2105 16.1713 0.603816
1 33.5149 16.1634 0.331256
1 34.0117 14.7417 0.689026
1 35.5339 14.7035 0.669441
1 36.3459 16.1072 0.527512
1 37.6243 16.1245 4.78734
1 38.5202 14.9755 0.712187
1 39.9279 14.7847 0.0627263
1 40.4964 16.092 0.435843
1 41.8981 16.0514 0.940389
1 0.156328 17.2427 0.375906
1 1.65752 17.2557 0.380666
1 2.09713 18.4992 0.585511
1 3.52712 18.5964 0.525539
1 4.46035 17.4179 1.08547
1 5.67275 17.3828 0.339479
1 6.32804 18.6157 0.643657
1 7.72853 18.4807 0.393527
1 8.45584 17.3174 0.371585
1 9.84535 17.1859 0.25217
1 10.5101 18.5165 0.349336
1 11.9843 18.3631 0.805673
1 12.694 17.0511 0.441019
1 14.1896 17.0675 0.275271
1 14.8646 18.4762 0.388953
1 16.3668 18.2051 0.669201
1 17.1116 17.0267 0.406899
1 18.4395 17.0787 0.48611
1 19.1276 18.2848 0.631595
1 20.6328 18.3499 4.71957
1 21.2853 17.1584 0.41618
1 22.7365 17.2466 0.523447
1 23.3813 18.3648 0.337148
1 24.9582 18.4538 0.982339
1 25.7065 16.9075 0.850528
1 27.2743 16.796 0.510859
1 27.7705 18.0235 4.64957
1 29.181 18.4192 0.52448
1 29.7402 17.1989 0.89861
1 31.2963 17.1901 1.15952
1 32.02 18.6259 0.840782
1 33.3868 18.5675 0.397347
1 34.286 17.3341 0.368248
1 35.5789 17.2575 1.1663
1 36.4198 18.4291 1.02143
1 37.7076 18.5106 0.437796
1 38.4188 17.3451 0.330809
1 39.8017 17.2446 0.797838
1 40.5631 18.6837 0.474802
1 41.9707 18.5389 0.807381
1 42.5982 19.9455 0.738464
1 1.4327 19.6998 0.432251
1 2.10892 20.9143 0.485236
1 3.45709 20.8831 0.354066
1 4.22002 19.8295 0.417168
1 5.56536 19.8331 0.264985
1 6.39956 21.1621 0.342023
1 7.861 20.9806 0.972765
1 8.42333 19.6572 0.474298
1 9.90056 19.837 0.276762
1 10.7273 20.9853 0.434117
1 12.0023 20.7791 0.58327
1 12.714 19.5595 0.215361
1 14.1751 19.6766 0.670777
1 15.0406 20.8269 0.430708
1 16.3615 20.7598 0.525927
1 17.0184 19.4302 0.47028
1 18.4793 19.5831 0.2281
1 19.1734 20.9381 0.315282
1 20.5911 20.8651 0.8383
1 21.1979 19.5429 0.634313
1 22.6755 19.548 0.860919
1 23.2995 20.6827 0.407605
1 24.7141 20.7215 0.393236
1 25.4512 19.494 0.162039
1 27.0589 19.5505 4.86492
1 27.6535 21.0061 0.22216
1 28.9945 20.8483 0.766588
1 29.7337 19.6729 0.415806
1 31.2985 19.6651 0.227475
1 31.9237 20.9268 0.742177
1 33.3822 20.7914 0.437693
1 34.2431 19.747 0.701152
1 35.5549 19.4967 0.494383
1 36.1874 20.9588 0.305403
1 37.7183 20.9787 0.48031
1 38.4209 19.6347 0.161023
1 39.8043 19.6731 4.68052
1 40.4691 20.9492 0.31041
1 42.0944 21.0341 4.94286
1 0.116469 22.2194 0.210853
1 1.44161 22.2371 0.902287
1 2.11556 23.4056 0.289261
1 3.48235 23.3856 0.870663
1 4.21607 22.0573 0.239784
1 5.54082 22.1308 0.885893
1 6.38365 23.4133 0.455414
1 7.7995 23.4206 0.0501628
1 8.53058 22.1181 0.243546
1 9.92822 22.2223 0.87502
1 10.7083 23.4026 0.611394
1 12.1659 23.408 4.8234
1 12.8912 22.0282 0.498194
1 14.4229 21.9857 0.561959
1 15.0189 23.2454 0.348855
1 16.5114 23.3452 0.418082
1 17.1123 22.0015 0.562126
1 18.5734 22.1274 0.883193
1 19.2041 23.3737 0.509576
1 20.7165 23.2306 0.121296
1 21.3074 21.9286 0.328036
1 22.6801 21.9195 0.398765
1 23.2084 23.2541 0.46385
1 24.9218 23.273 0.867421
1 25.5628 21.7951 0.477005
1 26.912 22.1284 0.405612
1 27.5788 23.3591 0.398819
1 29.0233 23.371 0.415662
1 29.8008 22.2241 0.474756
1 31.0686 22.082 0.019491
1 31.8645 23.3353 0.463436
1 33.2887 23.1943 0.756671
1 34.0779 22.0586 0.216151
1 35.586 22.1799 0.840779
1 36.3376 23.4388 0.700791
1 37.5198 23.43 0.337936
1 38.2733 22.2691 0.194624
1 39.6608 22.2975 0.36369
1 40.3986 23.4507 0.673545
1 41.8337 23.3673 0.382947
1 1.39789 24.5523 3.45444
1 2.96831 24.5932 3.07014
1 3.6814 1.174 2.98429
1 4.99092 1.07854 3.10946
1 5.73168 24.4999 2.28664
1 7.15881 24.5301 2.89956
1 7.78459 1.16911 2.94565
1 9.16221 1.10101 2.64494
1 9.97576 24.5467 2.85536
1 11.5892 24.5276 2.37414
1 12.0634 1.28346 2.69917
1 13.3646 1.33846 2.96216
1 14.0996 0.0379191 3.05182
1 15.5305 0.199407 2.68072
1 16.4321 1.24584 2.525
1 17.6868 1.2112 3.04041
1 18.3258 24.5586 3.37061
1 19.785 0.00637789 2.90414
1 20.5766 1.21125 2.567
1 22.0979 1.2434 2.77535
1 22.6666 24.6006 2.78715
1 23.923 24.5885 3.27664
1 24.8577 1.38256 3.47846
1 26.1321 1.35283 2.23716
1 27.1738 0.182002 2.16948
1 28.5978 0.0484315 3.03038
1 29.1457 1.29721 2.52514
1 30.7397 1.20463 2.34672
1 31.3465 24.4539 2.80133
1 32.7396 24.5307 3.19594
1 33.3201 1.13148 2.6882
1 34.9354 1.36826 2.94449
1 35.5485 0.280284 2.61873
1 36.865 24.2753 2.9079
1 37.6761 1.06898 2.66088
1 39.1573 1.11978 3.02218
1 39.7475 24.5555 3.01679
1 41.2504 24.527 2.57992
1 42.0388 1.17238 2.21573
1 0.897992 1.02432 2.66075
1 1.70417 2.38079 2.28653
1 3.18408 2.34237 2.62549
1 3.58229 3.68327 3.0108
1 4.96325 3.68221 3.1624
1 5.69235 2.48153 2.83979
1 7.01967 2.44449 3.18042
1 7.80382 3.66183 3.4734
1 9.20441 3.76468 3.07522
1 9.84574 2.42991 2.43203
1 11.4854 2.4594 2.99468
1 12.0737 3.73503 2.47244
1 13.6163 3.56467 3.06025
1 14.3217 2.43491 2.25793
1 15.8692 2.67836 2.19292
1 16.6378 3.78284 2.85627
1 17.8947 3.76621 2.95303
1 18.5512 2.40208 3.34189
1 19.9194 2.5738 2.92483
1 20.6949 3.8518 3.61921
1 21.9324 3.70463 2.47005
1 22.7138 2.49293 2.90663
1 23.9078 2.62184 3.34913
1 24.7436 3.78926 2.76147
1 26.2815 3.79927 2.85343
1 27.0181 2.62867 2.93831
1 28.4946 2.51853 2.93294
1 29.1598 3.76701 2.37728
1 30.603 3.53482 2.72282
1 31.4584 2.55644 2.65299
1 32.7294 2.5641 2.82417
1 33.367 3.76625 2.94603
1 34.749 3.88291 2.93323
1 35.5152 2.61591 2.9589
1 36.8742 2.44477 2.83741
1 37.5069 3.613 3.03053
1 38.7154 3.47401 2.21866
1 39.691 2.42537 2.91978
1 41.078 2.52244 2.46062
1 41.942 3.61478 2.51725
1 0.712039 3.58159 2.79702
1 1.54174 4.77321 2.91069
1 2.95562 4.78707 2.40651
1 3.66099 6.0722 2.81149
1 4.97578 6.05064 2.65452
1 5.74582 4.79578 2.56794
1 7.12934 4.93856 3.17941
1 7.78517 6.11153 2.49799
1 9.21106 6.01786 3.03806
1 9.8892 4.93491 2.87413
1 11.2165 4.82325 2.31054
1 12.1137 6.13702 2.67565
1 13.4337 5.94752 3.06272
1 14.3654 4.80589 2.67339
1 15.8635 4.75508 3.34227
1 16.3719 6.1676 3.06363
1 17.8221 6.04195 3.10167
1 18.5107 4.99427 2.87473
1 19.8654 5.00038 2.95613
1 20.5412 6.21465 2.67935
1 21.9627 6.11018 2.8386
1 22.6733 4.9424 2.9065
1 23.8837 4.96331 3.19771
1 24.8359 6.18888 2.43454
1 26.1447 6.18862 2.92046
1 26.8693 4.99819 2.95017
1 28.141 4.93765 2.70125
1 29.0099 6.2695 2.48075
1 30.428 6.1611 3.16059
1 31.1683 4.93301 2.42029
1 32.5944 5.03921 2.80047
1 33.1244 6.20738 2.73618
1 34.3952 6.36648 2.36388
1 35.3419 5.24244 2.09693
1 36.8279 4.74507 2.77529
1 37.4277 6.09901 2.80647
1 38.9271 5.98618 2.80511
1 39.7527 4.70214 2.04127
1 41.2112 4.60544 2.92003
1 41.9581 5.92635 2.95349
1 0.766338 5.92189 2.77659
1 1.52189 7.13397 2.79052
1 2.95974 7.19434 2.82241
1 3.50161 8.55429 2.48
1 4.9902 8.54559 2.88749
1 5.70628 7.27928 2.87215
1 7.05026 7.3736 2.89357
1 7.82288 8.51316 2.70009
1 9.29071 8.69496 2.90121
1 9.93805 7.26091 2.73181
1 11.4443 7.34878 3.00081
1 12.0437 8.66157 2.56128
1 13.6161 8.62768 2.61866
1 14.2432 7.35038 3.62608
1 15.8393 7.49103 3.05322
1 16.3305 8.73027 2.34308
1 17.8017 8.76132 2.89983
1 18.4555 7.2388 2.49355
1 20.01 7.58108 3.01977
1 20.5629 8.67318 2.55818
1 21.9183 8.56889 2.52802
1 22.6382 7.37936 2.99076
1 24.0119 7.33556 2.88489
1 24.5592 8.60667 2.9927
1 26.2551 8.68868 2.59992
1 26.8331 7.35382 2.9343
1 28.2006 7.36769 2.90787
1 28.8456 8.69244 2.66632
1 30.2596 8.77072 3.16933
1 31.2226 7.48357 3.39792
1 32.7264 7.41858 3.0139
1 33.2512 8.63198 2.69335
1 34.6763 8.60769 3.28503
1 35.3377 7.58776 2.58112
1 36.7339 7.26369 2.4015
1 37.5357 8.23795 2.81035
1 38.9772 8.2146 2.9569
1 39.7246 7.11066 2.64419
1 41.1084 7.12267 2.9141
1 41.9765 8.35424 2.80843
1 0.710897 8.55455 2.48173
1 1.47296 9.84279 2.64521
1 2.78909 9.77302 3.08635
1 3.44705 10.9453 2.47998
1 4.8519 11.0064 2.76371
1 5.5847 9.75542 2.90821
1 7.06043 9.76479 2.96023
1 7.81561 11.0573 2.39409