ITEM: TIMESTEP
0
ITEM: NUMBER OF ATOMS
3000
ITEM: BOX BOUNDS pp pp pp
-1.0000000000000000e+00 3.1000000000000000e+01
-1.0000000000000000e+00 3.1000000000000000e+01
-1.0000000000000000e+00 1.0100000000000000e+02
ITEM: ATOMS id mol type x y z ix iy iz 
1 1 1 3.31649 2.5 11.5774 0 0 0 
2 1 1 1.68351 2.5 11.5774 0 0 0 
3 1 2 2.5 2.5 11 0 0 0 
4 2 1 6.31649 2.5 11.5774 0 0 0 
5 2 1 4.68351 2.5 11.5774 0 0 0 
6 2 2 5.5 2.5 11 0 0 0 
31 11 1 3.31649 5.5 11.5774 0 0 0 
32 11 1 1.68351 5.5 11.5774 0 0 0 
33 11 2 2.5 5.5 11 0 0 0 
34 12 1 6.31649 5.5 11.5774 0 0 0 
35 12 1 4.68351 5.5 11.5774 0 0 0 
36 12 2 5.5 5.5 11 0 0 0 
301 101 1 3.31649 2.5 14.5774 0 0 0 
302 101 1 1.68351 2.5 14.5774 0 0 0 
303 101 2 2.5 2.5 14 0 0 0 
304 102 1 6.31649 2.5 14.5774 0 0 0 
305 102 1 4.68351 2.5 14.5774 0 0 0 
306 102 2 5.5 2.5 14 0 0 0 
331 111 1 3.31649 5.5 14.5774 0 0 0 
332 111 1 1.68351 5.5 14.5774 0 0 0 
333 111 2 2.5 5.5 14 0 0 0 
334 112 1 6.31649 5.5 14.5774 0 0 0 
335 112 1 4.68351 5.5 14.5774 0 0 0 
336 112 2 5.5 5.5 14 0 0 0 
7 3 1 9.31649 2.5 11.5774 0 0 0 
8 3 1 7.68351 2.5 11.5774 0 0 0 
9 3 2 8.5 2.5 11 0 0 0 
10 4 1 12.3165 2.5 11.5774 0 0 0 
11 4 1 10.6835 2.5 11.5774 0 0 0 
12 4 2 11.5 2.5 11 0 0 0 
14 5 1 13.6835 2.5 11.5774 0 0 0 
15 5 2 14.5 2.5 11 0 0 0 
37 13 1 9.31649 5.5 11.5774 0 0 0 
38 13 1 7.68351 5.5 11.5774 0 0 0 
39 13 2 8.5 5.5 11 0 0 0 
40 14 1 12.3165 5.5 11.5774 0 0 0 
41 14 1 10.6835 5.5 11.5774 0 0 0 
42 14 2 11.5 5.5 11 0 0 0 
44 15 1 13.6835 5.5 11.5774 0 0 0 
45 15 2 14.5 5.5 11 0 0 0 
307 103 1 9.31649 2.5 14.5774 0 0 0 
308 103 1 7.68351 2.5 14.5774 0 0 0 
309 103 2 8.5 2.5 14 0 0 0 
310 104 1 12.3165 2.5 14.5774 0 0 0 
311 104 1 10.6835 2.5 14.5774 0 0 0 
312 104 2 11.5 2.5 14 0 0 0 
314 105 1 13.6835 2.5 14.5774 0 0 0 
315 105 2 14.5 2.5 14 0 0 0 
337 113 1 9.31649 5.5 14.5774 0 0 0 
338 113 1 7.68351 5.5 14.5774 0 0 0 
339 113 2 8.5 5.5 14 0 0 0 
340 114 1 12.3165 5.5 14.5774 0 0 0 
341 114 1 10.6835 5.5 14.5774 0 0 0 
342 114 2 11.5 5.5 14 0 0 0 
344 115 1 13.6835 5.5 14.5774 0 0 0 
345 115 2 14.5 5.5 14 0 0 0 
13 5 1 15.3165 2.5 11.5774 0 0 0 
16 6 1 18.3165 2.5 11.5774 0 0 0 
17 6 1 16.6835 2.5 11.5774 0 0 0 
18 6 2 17.5 2.5 11 0 0 0 
19 7 1 21.3165 2.5 11.5774 0 0 0 
20 7 1 19.6835 2.5 11.5774 0 0 0 
21 7 2 20.5 2.5 11 0 0 0 
23 8 1 22.6835 2.5 11.5774 0 0 0 
43 15 1 15.3165 5.5 11.5774 0 0 0 
46 16 1 18.3165 5.5 11.5774 0 0 0 
47 16 1 16.6835 5.5 11.5774 0 0 0 
48 16 2 17.5 5.5 11 0 0 0 
49 17 1 21.3165 5.5 11.5774 0 0 0 
50 17 1 19.6835 5.5 11.5774 0 0 0 
51 17 2 20.5 5.5 11 0 0 0 
53 18 1 22.6835 5.5 11.5774 0 0 0 
313 105 1 15.3165 2.5 14.5774 0 0 0 
316 106 1 18.3165 2.5 14.5774 0 0 0 
317 106 1 16.6835 2.5 14.5774 0 0 0 
318 106 2 17.5 2.5 14 0 0 0 
319 107 1 21.3165 2.5 14.5774 0 0 0 
320 107 1 19.6835 2.5 14.5774 0 0 0 
321 107 2 20.5 2.5 14 0 0 0 
323 108 1 22.6835 2.5 14.5774 0 0 0 
343 115 1 15.3165 5.5 14.5774 0 0 0 
346 116 1 18.3165 5.5 14.5774 0 0 0 
347 116 1 16.6835 5.5 14.5774 0 0 0 
348 116 2 17.5 5.5 14 0 0 0 
349 117 1 21.3165 5.5 14.5774 0 0 0 
350 117 1 19.6835 5.5 14.5774 0 0 0 
351 117 2 20.5 5.5 14 0 0 0 
353 118 1 22.6835 5.5 14.5774 0 0 0 
22 8 1 24.3165 2.5 11.5774 0 0 0 
24 8 2 23.5 2.5 11 0 0 0 
25 9 1 27.3165 2.5 11.5774 0 0 0 
26 9 1 25.6835 2.5 11.5774 0 0 0 
27 9 2 26.5 2.5 11 0 0 0 
28 10 1 30.3165 2.5 11.5774 0 0 0 
29 10 1 28.6835 2.5 11.5774 0 0 0 
30 10 2 29.5 2.5 11 0 0 0 
52 18 1 24.3165 5.5 11.5774 0 0 0 
54 18 2 23.5 5.5 11 0 0 0 
55 19 1 27.3165 5.5 11.5774 0 0 0 
56 19 1 25.6835 5.5 11.5774 0 0 0 
57 19 2 26.5 5.5 11 0 0 0 
58 20 1 30.3165 5.5 11.5774 0 0 0 
59 20 1 28.6835 5.5 11.5774 0 0 0 
60 20 2 29.5 5.5 11 0 0 0 
322 108 1 24.3165 2.5 14.5774 0 0 0 
324 108 2 23.5 2.5 14 0 0 0 
325 109 1 27.3165 2.5 14.5774 0 0 0 
326 109 1 25.6835 2.5 14.5774 0 0 0 
327 109 2 26.5 2.5 14 0 0 0 
328 110 1 30.3165 2.5 14.5774 0 0 0 
329 110 1 28.6835 2.5 14.5774 0 0 0 
330 110 2 29.5 2.5 14 0 0 0 
352 118 1 24.3165 5.5 14.5774 0 0 0 
354 118 2 23.5 5.5 14 0 0 0 
355 119 1 27.3165 5.5 14.5774 0 0 0 
356 119 1 25.6835 5.5 14.5774 0 0 0 
357 119 2 26.5 5.5 14 0 0 0 
358 120 1 30.3165 5.5 14.5774 0 0 0 
359 120 1 28.6835 5.5 14.5774 0 0 0 
360 120 2 29.5 5.5 14 0 0 0 
61 21 1 3.31649 8.5 11.5774 0 0 0 
62 21 1 1.68351 8.5 11.5774 0 0 0 
63 21 2 2.5 8.5 11 0 0 0 
64 22 1 6.31649 8.5 11.5774 0 0 0 
65 22 1 4.68351 8.5 11.5774 0 0 0 
66 22 2 5.5 8.5 11 0 0 0 
91 31 1 3.31649 11.5 11.5774 0 0 0 
92 31 1 1.68351 11.5 11.5774 0 0 0 
93 31 2 2.5 11.5 11 0 0 0 
94 32 1 6.31649 11.5 11.5774 0 0 0 
95 32 1 4.68351 11.5 11.5774 0 0 0 
96 32 2 5.5 11.5 11 0 0 0 
121 41 1 3.31649 14.5 11.5774 0 0 0 
122 41 1 1.68351 14.5 11.5774 0 0 0 
123 41 2 2.5 14.5 11 0 0 0 
124 42 1 6.31649 14.5 11.5774 0 0 0 
125 42 1 4.68351 14.5 11.5774 0 0 0 
126 42 2 5.5 14.5 11 0 0 0 
361 121 1 3.31649 8.5 14.5774 0 0 0 
362 121 1 1.68351 8.5 14.5774 0 0 0 
363 121 2 2.5 8.5 14 0 0 0 
364 122 1 6.31649 8.5 14.5774 0 0 0 
365 122 1 4.68351 8.5 14.5774 0 0 0 
366 122 2 5.5 8.5 14 0 0 0 
391 131 1 3.31649 11.5 14.5774 0 0 0 
392 131 1 1.68351 11.5 14.5774 0 0 0 
393 131 2 2.5 11.5 14 0 0 0 
394 132 1 6.31649 11.5 14.5774 0 0 0 
395 132 1 4.68351 11.5 14.5774 0 0 0 
396 132 2 5.5 11.5 14 0 0 0 
421 141 1 3.31649 14.5 14.5774 0 0 0 
422 141 1 1.68351 14.5 14.5774 0 0 0 
423 141 2 2.5 14.5 14 0 0 0 
424 142 1 6.31649 14.5 14.5774 0 0 0 
425 142 1 4.68351 14.5 14.5774 0 0 0 
426 142 2 5.5 14.5 14 0 0 0 
67 23 1 9.31649 8.5 11.5774 0 0 0 
68 23 1 7.68351 8.5 11.5774 0 0 0 
69 23 2 8.5 8.5 11 0 0 0 
70 24 1 12.3165 8.5 11.5774 0 0 0 
71 24 1 10.6835 8.5 11.5774 0 0 0 
72 24 2 11.5 8.5 11 0 0 0 
74 25 1 13.6835 8.5 11.5774 0 0 0 
75 25 2 14.5 8.5 11 0 0 0 
97 33 1 9.31649 11.5 11.5774 0 0 0 
98 33 1 7.68351 11.5 11.5774 0 0 0 
99 33 2 8.5 11.5 11 0 0 0 
100 34 1 12.3165 11.5 11.5774 0 0 0 
101 34 1 10.6835 11.5 11.5774 0 0 0 
102 34 2 11.5 11.5 11 0 0 0 
104 35 1 13.6835 11.5 11.5774 0 0 0 
105 35 2 14.5 11.5 11 0 0 0 
127 43 1 9.31649 14.5 11.5774 0 0 0 
128 43 1 7.68351 14.5 11.5774 0 0 0 
129 43 2 8.5 14.5 11 0 0 0 
130 44 1 12.3165 14.5 11.5774 0 0 0 
131 44 1 10.6835 14.5 11.5774 0 0 0 
132 44 2 11.5 14.5 11 0 0 0 
134 45 1 13.6835 14.5 11.5774 0 0 0 
135 45 2 14.5 14.5 11 0 0 0 
367 123 1 9.31649 8.5 14.5774 0 0 0 
368 123 1 7.68351 8.5 14.5774 0 0 0 
369 123 2 8.5 8.5 14 0 0 0 
370 124 1 12.3165 8.5 14.5774 0 0 0 
371 124 1 10.6835 8.5 14.5774 0 0 0 
372 124 2 11.5 8.5 14 0 0 0 
374 125 1 13.6835 8.5 14.5774 0 0 0 
375 125 2 14.5 8.5 14 0 0 0 
397 133 1 9.31649 11.5 14.5774 0 0 0 
398 133 1 7.68351 11.5 14.5774 0 0 0 
399 133 2 8.5 11.5 14 0 0 0 
400 134 1 12.3165 11.5 14.5774 0 0 0 
401 134 1 10.6835 11.5 14.5774 0 0 0 
402 134 2 11.5 11.5 14 0 0 0 
404 135 1 13.6835 11.5 14.5774 0 0 0 
405 135 2 14.5 11.5 14 0 0 0 
427 143 1 9.31649 14.5 14.5774 0 0 0 
428 143 1 7.68351 14.5 14.5774 0 0 0 
429 143 2 8.5 14.5 14 0 0 0 
430 144 1 12.3165 14.5 14.5774 0 0 0 
431 144 1 10.6835 14.5 14.5774 0 0 0 
432 144 2 11.5 14.5 14 0 0 0 
434 145 1 13.6835 14.5 14.5774 0 0 0 
435 145 2 14.5 14.5 14 0 0 0 
73 25 1 15.3165 8.5 11.5774 0 0 0 
76 26 1 18.3165 8.5 11.5774 0 0 0 
77 26 1 16.6835 8.5 11.5774 0 0 0 
78 26 2 17.5 8.5 11 0 0 0 
79 27 1 21.3165 8.5 11.5774 0 0 0 
80 27 1 19.6835 8.5 11.5774 0 0 0 
81 27 2 20.5 8.5 11 0 0 0 
83 28 1 22.6835 8.5 11.5774 0 0 0 
103 35 1 15.3165 11.5 11.5774 0 0 0 
106 36 1 18.3165 11.5 11.5774 0 0 0 
107 36 1 16.6835 11.5 11.5774 0 0 0 
108 36 2 17.5 11.5 11 0 0 0 
109 37 1 21.3165 11.5 11.5774 0 0 0 
110 37 1 19.6835 11.5 11.5774 0 0 0 
111 37 2 20.5 11.5 11 0 0 0 
113 38 1 22.6835 11.5 11.5774 0 0 0 
133 45 1 15.3165 14.5 11.5774 0 0 0 
136 46 1 18.3165 14.5 11.5774 0 0 0 
137 46 1 16.6835 14.5 11.5774 0 0 0 
138 46 2 17.5 14.5 11 0 0 0 
139 47 1 21.3165 14.5 11.5774 0 0 0 
140 47 1 19.6835 14.5 11.5774 0 0 0 
141 47 2 20.5 14.5 11 0 0 0 
143 48 1 22.6835 14.5 11.5774 0 0 0 
373 125 1 15.3165 8.5 14.5774 0 0 0 
376 126 1 18.3165 8.5 14.5774 0 0 0 
377 126 1 16.6835 8.5 14.5774 0 0 0 
378 126 2 17.5 8.5 14 0 0 0 
379 127 1 21.3165 8.5 14.5774 0 0 0 
380 127 1 19.6835 8.5 14.5774 0 0 0 
381 127 2 20.5 8.5 14 0 0 0 
383 128 1 22.6835 8.5 14.5774 0 0 0 
403 135 1 15.3165 11.5 14.5774 0 0 0 
406 136 1 18.3165 11.5 14.5774 0 0 0 
407 136 1 16.6835 11.5 14.5774 0 0 0 
408 136 2 17.5 11.5 14 0 0 0 
409 137 1 21.3165 11.5 14.5774 0 0 0 
410 137 1 19.6835 11.5 14.5774 0 0 0 
411 137 2 20.5 11.5 14 0 0 0 
413 138 1 22.6835 11.5 14.5774 0 0 0 
433 145 1 15.3165 14.5 14.5774 0 0 0 
436 146 1 18.3165 14.5 14.5774 0 0 0 
437 146 1 16.6835 14.5 14.5774 0 0 0 
438 146 2 17.5 14.5 14 0 0 0 
439 147 1 21.3165 14.5 14.5774 0 0 0 
440 147 1 19.6835 14.5 14.5774 0 0 0 
441 147 2 20.5 14.5 14 0 0 0 
443 148 1 22.6835 14.5 14.5774 0 0 0 
82 28 1 24.3165 8.5 11.5774 0 0 0 
84 28 2 23.5 8.5 11 0 0 0 
85 29 1 27.3165 8.5 11.5774 0 0 0 
86 29 1 25.6835 8.5 11.5774 0 0 0 
87 29 2 26.5 8.5 11 0 0 0 
88 30 1 30.3165 8.5 11.5774 0 0 0 
89 30 1 28.6835 8.5 11.5774 0 0 0 
90 30 2 29.5 8.5 11 0 0 0 
112 38 1 24.3165 11.5 11.5774 0 0 0 
114 38 2 23.5 11.5 11 0 0 0 
115 39 1 27.3165 11.5 11.5774 0 0 0 
116 39 1 25.6835 11.5 11.5774 0 0 0 
117 39 2 26.5 11.5 11 0 0 0 
118 40 1 30.3165 11.5 11.5774 0 0 0 
119 40 1 28.6835 11.5 11.5774 0 0 0 
120 40 2 29.5 11.5 11 0 0 0 
142 48 1 24.3165 14.5 11.5774 0 0 0 
144 48 2 23.5 14.5 11 0 0 0 
145 49 1 27.3165 14.5 11.5774 0 0 0 
146 49 1 25.6835 14.5 11.5774 0 0 0 
147 49 2 26.5 14.5 11 0 0 0 
148 50 1 30.3165 14.5 11.5774 0 0 0 
149 50 1 28.6835 14.5 11.5774 0 0 0 
150 50 2 29.5 14.5 11 0 0 0 
382 128 1 24.3165 8.5 14.5774 0 0 0 
384 128 2 23.5 8.5 14 0 0 0 
385 129 1 27.3165 8.5 14.5774 0 0 0 
386 129 1 25.6835 8.5 14.5774 0 0 0 
387 129 2 26.5 8.5 14 0 0 0 
388 130 1 30.3165 8.5 14.5774 0 0 0 
389 130 1 28.6835 8.5 14.5774 0 0 0 
390 130 2 29.5 8.5 14 0 0 0 
412 138 1 24.3165 11.5 14.5774 0 0 0 
414 138 2 23.5 11.5 14 0 0 0 
415 139 1 27.3165 11.5 14.5774 0 0 0 
416 139 1 25.6835 11.5 14.5774 0 0 0 
417 139 2 26.5 11.5 14 0 0 0 
418 140 1 30.3165 11.5 14.5774 0 0 0 
419 140 1 28.6835 11.5 14.5774 0 0 0 
420 140 2 29.5 11.5 14 0 0 0 
442 148 1 24.3165 14.5 14.5774 0 0 0 
444 148 2 23.5 14.5 14 0 0 0 
445 149 1 27.3165 14.5 14.5774 0 0 0 
446 149 1 25.6835 14.5 14.5774 0 0 0 
447 149 2 26.5 14.5 14 0 0 0 
448 150 1 30.3165 14.5 14.5774 0 0 0 
449 150 1 28.6835 14.5 14.5774 0 0 0 
450 150 2 29.5 14.5 14 0 0 0 
151 51 1 3.31649 17.5 11.5774 0 0 0 
152 51 1 1.68351 17.5 11.5774 0 0 0 
153 51 2 2.5 17.5 11 0 0 0 
154 52 1 6.31649 17.5 11.5774 0 0 0 
155 52 1 4.68351 17.5 11.5774 0 0 0 
156 52 2 5.5 17.5 11 0 0 0 
181 61 1 3.31649 20.5 11.5774 0 0 0 
182 61 1 1.68351 20.5 11.5774 0 0 0 
183 61 2 2.5 20.5 11 0 0 0 
184 62 1 6.31649 20.5 11.5774 0 0 0 
185 62 1 4.68351 20.5 11.5774 0 0 0 
186 62 2 5.5 20.5 11 0 0 0 
451 151 1 3.31649 17.5 14.5774 0 0 0 
452 151 1 1.68351 17.5 14.5774 0 0 0 
453 151 2 2.5 17.5 14 0 0 0 
454 152 1 6.31649 17.5 14.5774 0 0 0 
455 152 1 4.68351 17.5 14.5774 0 0 0 
456 152 2 5.5 17.5 14 0 0 0 
481 161 1 3.31649 20.5 14.5774 0 0 0 
482 161 1 1.68351 20.5 14.5774 0 0 0 
483 161 2 2.5 20.5 14 0 0 0 
484 162 1 6.31649 20.5 14.5774 0 0 0 
485 162 1 4.68351 20.5 14.5774 0 0 0 
486 162 2 5.5 20.5 14 0 0 0 
157 53 1 9.31649 17.5 11.5774 0 0 0 
158 53 1 7.68351 17.5 11.5774 0 0 0 
159 53 2 8.5 17.5 11 0 0 0 
160 54 1 12.3165 17.5 11.5774 0 0 0 
161 54 1 10.6835 17.5 11.5774 0 0 0 
162 54 2 11.5 17.5 11 0 0 0 
164 55 1 13.6835 17.5 11.5774 0 0 0 
165 55 2 14.5 17.5 11 0 0 0 
187 63 1 9.31649 20.5 11.5774 0 0 0 
188 63 1 7.68351 20.5 11.5774 0 0 0 
189 63 2 8.5 20.5 11 0 0 0 
190 64 1 12.3165 20.5 11.5774 0 0 0 
191 64 1 10.6835 20.5 11.5774 0 0 0 
192 64 2 11.5 20.5 11 0 0 0 
194 65 1 13.6835 20.5 11.5774 0 0 0 
195 65 2 14.5 20.5 11 0 0 0 
457 153 1 9.31649 17.5 14.5774 0 0 0 
458 153 1 7.68351 17.5 14.5774 0 0 0 
459 153 2 8.5 17.5 14 0 0 0 
460 154 1 12.3165 17.5 14.5774 0 0 0 
461 154 1 10.6835 17.5 14.5774 0 0 0 
462 154 2 11.5 17.5 14 0 0 0 
464 155 1 13.6835 17.5 14.5774 0 0 0 
465 155 2 14.5 17.5 14 0 0 0 
487 163 1 9.31649 20.5 14.5774 0 0 0 
488 163 1 7.68351 20.5 14.5774 0 0 0 
489 163 2 8.5 20.5 14 0 0 0 
490 164 1 12.3165 20.5 14.5774 0 0 0 
491 164 1 10.6835 20.5 14.5774 0 0 0 
492 164 2 11.5 20.5 14 0 0 0 
494 165 1 13.6835 20.5 14.5774 0 0 0 
495 165 2 14.5 20.5 14 0 0 0 
163 55 1 15.3165 17.5 11.5774 0 0 0 
166 56 1 18.3165 17.5 11.5774 0 0 0 
167 56 1 16.6835 17.5 11.5774 0 0 0 
168 56 2 17.5 17.5 11 0 0 0 
169 57 1 21.3165 17.5 11.5774 0 0 0 
170 57 1 19.6835 17.5 11.5774 0 0 0 
171 57 2 20.5 17.5 11 0 0 0 
173 58 1 22.6835 17.5 11.5774 0 0 0 
193 65 1 15.3165 20.5 11.5774 0 0 0 
196 66 1 18.3165 20.5 11.5774 0 0 0 
197 66 1 16.6835 20.5 11.5774 0 0 0 
198 66 2 17.5 20.5 11 0 0 0 
199 67 1 21.3165 20.5 11.5774 0 0 0 
200 67 1 19.6835 20.5 11.5774 0 0 0 
201 67 2 20.5 20.5 11 0 0 0 
203 68 1 22.6835 20.5 11.5774 0 0 0 
463 155 1 15.3165 17.5 14.5774 0 0 0 
466 156 1 18.3165 17.5 14.5774 0 0 0 
467 156 1 16.6835 17.5 14.5774 0 0 0 
468 156 2 17.5 17.5 14 0 0 0 
469 157 1 21.3165 17.5 14.5774 0 0 0 
470 157 1 19.6835 17.5 14.5774 0 0 0 
471 157 2 20.5 17.5 14 0 0 0 
473 158 1 22.6835 17.5 14.5774 0 0 0 
493 165 1 15.3165 20.5 14.5774 0 0 0 
496 166 1 18.3165 20.5 14.5774 0 0 0 
497 166 1 16.6835 20.5 14.5774 0 0 0 
498 166 2 17.5 20.5 14 0 0 0 
499 167 1 21.3165 20.5 14.5774 0 0 0 
500 167 1 19.6835 20.5 14.5774 0 0 0 
501 167 2 20.5 20.5 14 0 0 0 
503 168 1 22.6835 20.5 14.5774 0 0 0 
172 58 1 24.3165 17.5 11.5774 0 0 0 
174 58 2 23.5 17.5 11 0 0 0 
175 59 1 27.3165 17.5 11.5774 0 0 0 
176 59 1 25.6835 17.5 11.5774 0 0 0 
177 59 2 26.5 17.5 11 0 0 0 
178 60 1 30.3165 17.5 11.5774 0 0 0 
179 60 1 28.6835 17.5 11.5774 0 0 0 
180 60 2 29.5 17.5 11 0 0 0 
202 68 1 24.3165 20.5 11.5774 0 0 0 
204 68 2 23.5 20.5 11 0 0 0 
205 69 1 27.3165 20.5 11.5774 0 0 0 
206 69 1 25.6835 20.5 11.5774 0 0 0 
207 69 2 26.5 20.5 11 0 0 0 
208 70 1 30.3165 20.5 11.5774 0 0 0 
209 70 1 28.6835 20.5 11.5774 0 0 0 
210 70 2 29.5 20.5 11 0 0 0 
472 158 1 24.3165 17.5 14.5774 0 0 0 
474 158 2 23.5 17.5 14 0 0 0 
475 159 1 27.3165 17.5 14.5774 0 0 0 
476 159 1 25.6835 17.5 14.5774 0 0 0 
477 159 2 26.5 17.5 14 0 0 0 
478 160 1 30.3165 17.5 14.5774 0 0 0 
479 160 1 28.6835 17.5 14.5774 0 0 0 
480 160 2 29.5 17.5 14 0 0 0 
502 168 1 24.3165 20.5 14.5774 0 0 0 
504 168 2 23.5 20.5 14 0 0 0 
505 169 1 27.3165 20.5 14.5774 0 0 0 
506 169 1 25.6835 20.5 14.5774 0 0 0 
507 169 2 26.5 20.5 14 0 0 0 
508 170 1 30.3165 20.5 14.5774 0 0 0 
509 170 1 28.6835 20.5 14.5774 0 0 0 
510 170 2 29.5 20.5 14 0 0 0 
211 71 1 3.31649 23.5 11.5774 0 0 0 
212 71 1 1.68351 23.5 11.5774 0 0 0 
213 71 2 2.5 23.5 11 0 0 0 
214 72 1 6.31649 23.5 11.5774 0 0 0 
215 72 1 4.68351 23.5 11.5774 0 0 0 
216 72 2 5.5 23.5 11 0 0 0 
241 81 1 3.31649 26.5 11.5774 0 0 0 
242 81 1 1.68351 26.5 11.5774 0 0 0 
243 81 2 2.5 26.5 11 0 0 0 
244 82 1 6.31649 26.5 11.5774 0 0 0 
245 82 1 4.68351 26.5 11.5774 0 0 0 
246 82 2 5.5 26.5 11 0 0 0 
271 91 1 3.31649 29.5 11.5774 0 0 0 
272 91 1 1.68351 29.5 11.5774 0 0 0 
273 91 2 2.5 29.5 11 0 0 0 
274 92 1 6.31649 29.5 11.5774 0 0 0 
275 92 1 4.68351 29.5 11.5774 0 0 0 
276 92 2 5.5 29.5 11 0 0 0 
511 171 1 3.31649 23.5 14.5774 0 0 0 
512 171 1 1.68351 23.5 14.5774 0 0 0 
513 171 2 2.5 23.5 14 0 0 0 
514 172 1 6.31649 23.5 14.5774 0 0 0 
515 172 1 4.68351 23.5 14.5774 0 0 0 
516 172 2 5.5 23.5 14 0 0 0 
541 181 1 3.31649 26.5 14.5774 0 0 0 
542 181 1 1.68351 26.5 14.5774 0 0 0 
543 181 2 2.5 26.5 14 0 0 0 
544 182 1 6.31649 26.5 14.5774 0 0 0 
545 182 1 4.68351 26.5 14.5774 0 0 0 
546 182 2 5.5 26.5 14 0 0 0 
571 191 1 3.31649 29.5 14.5774 0 0 0 
572 191 1 1.68351 29.5 14.5774 0 0 0 
573 191 2 2.5 29.5 14 0 0 0 
574 192 1 6.31649 29.5 14.5774 0 0 0 
575 192 1 4.68351 29.5 14.5774 0 0 0 
576 192 2 5.5 29.5 14 0 0 0 
217 73 1 9.31649 23.5 11.5774 0 0 0 
218 73 1 7.68351 23.5 11.5774 0 0 0 
219 73 2 8.5 23.5 11 0 0 0 
220 74 1 12.3165 23.5 11.5774 0 0 0 
221 74 1 10.6835 23.5 11.5774 0 0 0 
222 74 2 11.5 23.5 11 0 0 0 
224 75 1 13.6835 23.5 11.5774 0 0 0 
225 75 2 14.5 23.5 11 0 0 0 
247 83 1 9.31649 26.5 11.5774 0 0 0 
248 83 1 7.68351 26.5 11.5774 0 0 0 
249 83 2 8.5 26.5 11 0 0 0 
250 84 1 12.3165 26.5 11.5774 0 0 0 
251 84 1 10.6835 26.5 11.5774 0 0 0 
252 84 2 11.5 26.5 11 0 0 0 
254 85 1 13.6835 26.5 11.5774 0 0 0 
255 85 2 14.5 26.5 11 0 0 0 
277 93 1 9.31649 29.5 11.5774 0 0 0 
278 93 1 7.68351 29.5 11.5774 0 0 0 
279 93 2 8.5 29.5 11 0 0 0 
280 94 1 12.3165 29.5 11.5774 0 0 0 
281 94 1 10.6835 29.5 11.5774 0 0 0 
282 94 2 11.5 29.5 11 0 0 0 
284 95 1 13.6835 29.5 11.5774 0 0 0 
285 95 2 14.5 29.5 11 0 0 0 
517 173 1 9.31649 23.5 14.5774 0 0 0 
518 173 1 7.68351 23.5 14.5774 0 0 0 
519 173 2 8.5 23.5 14 0 0 0 
520 174 1 12.3165 23.5 14.5774 0 0 0 
521 174 1 10.6835 23.5 14.5774 0 0 0 
522 174 2 11.5 23.5 14 0 0 0 
524 175 1 13.6835 23.5 14.5774 0 0 0 
525 175 2 14.5 23.5 14 0 0 0 
547 183 1 9.31649 26.5 14.5774 0 0 0 
548 183 1 7.68351 26.5 14.5774 0 0 0 
549 183 2 8.5 26.5 14 0 0 0 
550 184 1 12.3165 26.5 14.5774 0 0 0 
551 184 1 10.6835 26.5 14.5774 0 0 0 
552 184 2 11.5 26.5 14 0 0 0 
554 185 1 13.6835 26.5 14.5774 0 0 0 
555 185 2 14.5 26.5 14 0 0 0 
577 193 1 9.31649 29.5 14.5774 0 0 0 
578 193 1 7.68351 29.5 14.5774 0 0 0 
579 193 2 8.5 29.5 14 0 0 0 
580 194 1 12.3165 29.5 14.5774 0 0 0 
581 194 1 10.6835 29.5 14.5774 0 0 0 
582 194 2 11.5 29.5 14 0 0 0 
584 195 1 13.6835 29.5 14.5774 0 0 0 
585 195 2 14.5 29.5 14 0 0 0 
223 75 1 15.3165 23.5 11.5774 0 0 0 
226 76 1 18.3165 23.5 11.5774 0 0 0 
227 76 1 16.6835 23.5 11.5774 0 0 0 
228 76 2 17.5 23.5 11 0 0 0 
229 77 1 21.3165 23.5 11.5774 0 0 0 
230 77 1 19.6835 23.5 11.5774 0 0 0 
231 77 2 20.5 23.5 11 0 0 0 
233 78 1 22.6835 23.5 11.5774 0 0 0 
253 85 1 15.3165 26.5 11.5774 0 0 0 
256 86 1 18.3165 26.5 11.5774 0 0 0 
257 86 1 16.6835 26.5 11.5774 0 0 0 
258 86 2 17.5 26.5 11 0 0 0 
259 87 1 21.3165 26.5 11.5774 0 0 0 
260 87 1 19.6835 26.5 11.5774 0 0 0 
261 87 2 20.5 26.5 11 0 0 0 
263 88 1 22.6835 26.5 11.5774 0 0 0 
283 95 1 15.3165 29.5 11.5774 0 0 0 
286 96 1 18.3165 29.5 11.5774 0 0 0 
287 96 1 16.6835 29.5 11.5774 0 0 0 
288 96 2 17.5 29.5 11 0 0 0 
289 97 1 21.3165 29.5 11.5774 0 0 0 
290 97 1 19.6835 29.5 11.5774 0 0 0 
291 97 2 20.5 29.5 11 0 0 0 
293 98 1 22.6835 29.5 11.5774 0 0 0 
523 175 1 15.3165 23.5 14.5774 0 0 0 
526 176 1 18.3165 23.5 14.5774 0 0 0 
527 176 1 16.6835 23.5 14.5774 0 0 0 
528 176 2 17.5 23.5 14 0 0 0 
529 177 1 21.3165 23.5 14.5774 0 0 0 
530 177 1 19.6835 23.5 14.5774 0 0 0 
531 177 2 20.5 23.5 14 0 0 0 
533 178 1 22.6835 23.5 14.5774 0 0 0 
553 185 1 15.3165 26.5 14.5774 0 0 0 
556 186 1 18.3165 26.5 14.5774 0 0 0 
557 186 1 16.6835 26.5 14.5774 0 0 0 
558 186 2 17.5 26.5 14 0 0 0 
559 187 1 21.3165 26.5 14.5774 0 0 0 
560 187 1 19.6835 26.5 14.5774 0 0 0 
561 187 2 20.5 26.5 14 0 0 0 
563 188 1 22.6835 26.5 14.5774 0 0 0 
583 195 1 15.3165 29.5 14.5774 0 0 0 
586 196 1 18.3165 29.5 14.5774 0 0 0 
587 196 1 16.6835 29.5 14.5774 0 0 0 
588 196 2 17.5 29.5 14 0 0 0 
589 197 1 21.3165 29.5 14.5774 0 0 0 
590 197 1 19.6835 29.5 14.5774 0 0 0 
591 197 2 20.5 29.5 14 0 0 0 
593 198 1 22.6835 29.5 14.5774 0 0 0 
232 78 1 24.3165 23.5 11.5774 0 0 0 
234 78 2 23.5 23.5 11 0 0 0 
235 79 1 27.3165 23.5 11.5774 0 0 0 
236 79 1 25.6835 23.5 11.5774 0 0 0 
237 79 2 26.5 23.5 11 0 0 0 
238 80 1 30.3165 23.5 11.5774 0 0 0 
239 80 1 28.6835 23.5 11.5774 0 0 0 
240 80 2 29.5 23.5 11 0 0 0 
262 88 1 24.3165 26.5 11.5774 0 0 0 
264 88 2 23.5 26.5 11 0 0 0 
265 89 1 27.3165 26.5 11.5774 0 0 0 
266 89 1 25.6835 26.5 11.5774 0 0 0 
267 89 2 26.5 26.5 11 0 0 0 
268 90 1 30.3165 26.5 11.5774 0 0 0 
269 90 1 28.6835 26.5 11.5774 0 0 0 
270 90 2 29.5 26.5 11 0 0 0 
292 98 1 24.3165 29.5 11.5774 0 0 0 
294 98 2 23.5 29.5 11 0 0 0 
295 99 1 27.3165 29.5 11.5774 0 0 0 
296 99 1 25.6835 29.5 11.5774 0 0 0 
297 99 2 26.5 29.5 11 0 0 0 
298 100 1 30.3165 29.5 11.5774 0 0 0 
299 100 1 28.6835 29.5 11.5774 0 0 0 
300 100 2 29.5 29.5 11 0 0 0 
532 178 1 24.3165 23.5 14.5774 0 0 0 
534 178 2 23.5 23.5 14 0 0 0 
535 179 1 27.3165 23.5 14.5774 0 0 0 
536 179 1 25.6835 23.5 14.5774 0 0 0 
537 179 2 26.5 23.5 14 0 0 0 
538 180 1 30.3165 23.5 14.5774 0 0 0 
539 180 1 28.6835 23.5 14.5774 0 0 0 
540 180 2 29.5 23.5 14 0 0 0 
562 188 1 24.3165 26.5 14.5774 0 0 0 
564 188 2 23.5 26.5 14 0 0 0 
565 189 1 27.3165 26.5 14.5774 0 0 0 
566 189 1 25.6835 26.5 14.5774 0 0 0 
567 189 2 26.5 26.5 14 0 0 0 
568 190 1 30.3165 26.5 14.5774 0 0 0 
569 190 1 28.6835 26.5 14.5774 0 0 0 
570 190 2 29.5 26.5 14 0 0 0 
592 198 1 24.3165 29.5 14.5774 0 0 0 
594 198 2 23.5 29.5 14 0 0 0 
595 199 1 27.3165 29.5 14.5774 0 0 0 
596 199 1 25.6835 29.5 14.5774 0 0 0 
597 199 2 26.5 29.5 14 0 0 0 
598 200 1 30.3165 29.5 14.5774 0 0 0 
599 200 1 28.6835 29.5 14.5774 0 0 0 
600 200 2 29.5 29.5 14 0 0 0 
601 201 1 3.31649 2.5 17.5774 0 0 0 
602 201 1 1.68351 2.5 17.5774 0 0 0 
603 201 2 2.5 2.5 17 0 0 0 
604 202 1 6.31649 2.5 17.5774 0 0 0 
605 202 1 4.68351 2.5 17.5774 0 0 0 
606 202 2 5.5 2.5 17 0 0 0 
631 211 1 3.31649 5.5 17.5774 0 0 0 
632 211 1 1.68351 5.5 17.5774 0 0 0 
633 211 2 2.5 5.5 17 0 0 0 
634 212 1 6.31649 5.5 17.5774 0 0 0 
635 212 1 4.68351 5.5 17.5774 0 0 0 
636 212 2 5.5 5.5 17 0 0 0 
901 301 1 3.31649 2.5 20.5774 0 0 0 
902 301 1 1.68351 2.5 20.5774 0 0 0 
903 301 2 2.5 2.5 20 0 0 0 
904 302 1 6.31649 2.5 20.5774 0 0 0 
905 302 1 4.68351 2.5 20.5774 0 0 0 
906 302 2 5.5 2.5 20 0 0 0 
931 311 1 3.31649 5.5 20.5774 0 0 0 
932 311 1 1.68351 5.5 20.5774 0 0 0 
933 311 2 2.5 5.5 20 0 0 0 
934 312 1 6.31649 5.5 20.5774 0 0 0 
935 312 1 4.68351 5.5 20.5774 0 0 0 
936 312 2 5.5 5.5 20 0 0 0 
607 203 1 9.31649 2.5 17.5774 0 0 0 
608 203 1 7.68351 2.5 17.5774 0 0 0 
609 203 2 8.5 2.5 17 0 0 0 
610 204 1 12.3165 2.5 17.5774 0 0 0 
611 204 1 10.6835 2.5 17.5774 0 0 0 
612 204 2 11.5 2.5 17 0 0 0 
614 205 1 13.6835 2.5 17.5774 0 0 0 
615 205 2 14.5 2.5 17 0 0 0 
637 213 1 9.31649 5.5 17.5774 0 0 0 
638 213 1 7.68351 5.5 17.5774 0 0 0 
639 213 2 8.5 5.5 17 0 0 0 
640 214 1 12.3165 5.5 17.5774 0 0 0 
641 214 1 10.6835 5.5 17.5774 0 0 0 
642 214 2 11.5 5.5 17 0 0 0 
644 215 1 13.6835 5.5 17.5774 0 0 0 
645 215 2 14.5 5.5 17 0 0 0 
907 303 1 9.31649 2.5 20.5774 0 0 0 
908 303 1 7.68351 2.5 20.5774 0 0 0 
909 303 2 8.5 2.5 20 0 0 0 
910 304 1 12.3165 2.5 20.5774 0 0 0 
911 304 1 10.6835 2.5 20.5774 0 0 0 
912 304 2 11.5 2.5 20 0 0 0 
914 305 1 13.6835 2.5 20.5774 0 0 0 
915 305 2 14.5 2.5 20 0 0 0 
937 313 1 9.31649 5.5 20.5774 0 0 0 
938 313 1 7.68351 5.5 20.5774 0 0 0 
939 313 2 8.5 5.5 20 0 0 0 
940 314 1 12.3165 5.5 20.5774 0 0 0 
941 314 1 10.6835 5.5 20.5774 0 0 0 
942 314 2 11.5 5.5 20 0 0 0 
944 315 1 13.6835 5.5 20.5774 0 0 0 
945 315 2 14.5 5.5 20 0 0 0 
613 205 1 15.3165 2.5 17.5774 0 0 0 
616 206 1 18.3165 2.5 17.5774 0 0 0 
617 206 1 16.6835 2.5 17.5774 0 0 0 
618 206 2 17.5 2.5 17 0 0 0 
619 207 1 21.3165 2.5 17.5774 0 0 0 
620 207 1 19.6835 2.5 17.5774 0 0 0 
621 207 2 20.5 2.5 17 0 0 0 
623 208 1 22.6835 2.5 17.5774 0 0 0 
643 215 1 15.3165 5.5 17.5774 0 0 0 
646 216 1 18.3165 5.5 17.5774 0 0 0 
647 216 1 16.6835 5.5 17.5774 0 0 0 
648 216 2 17.5 5.5 17 0 0 0 
649 217 1 21.3165 5.5 17.5774 0 0 0 
650 217 1 19.6835 5.5 17.5774 0 0 0 
651 217 2 20.5 5.5 17 0 0 0 
653 218 1 22.6835 5.5 17.5774 0 0 0 
913 305 1 15.3165 2.5 20.5774 0 0 0 
916 306 1 18.3165 2.5 20.5774 0 0 0 
917 306 1 16.6835 2.5 20.5774 0 0 0 
918 306 2 17.5 2.5 20 0 0 0 
919 307 1 21.3165 2.5 20.5774 0 0 0 
920 307 1 19.6835 2.5 20.5774 0 0 0 
921 307 2 20.5 2.5 20 0 0 0 
923 308 1 22.6835 2.5 20.5774 0 0 0 
943 315 1 15.3165 5.5 20.5774 0 0 0 
946 316 1 18.3165 5.5 20.5774 0 0 0 
947 316 1 16.6835 5.5 20.5774 0 0 0 
948 316 2 17.5 5.5 20 0 0 0 
949 317 1 21.3165 5.5 20.5774 0 0 0 
950 317 1 19.6835 5.5 20.5774 0 0 0 
951 317 2 20.5 5.5 20 0 0 0 
953 318 1 22.6835 5.5 20.5774 0 0 0 
622 208 1 24.3165 2.5 17.5774 0 0 0 
624 208 2 23.5 2.5 17 0 0 0 
625 209 1 27.3165 2.5 17.5774 0 0 0 
626 209 1 25.6835 2.5 17.5774 0 0 0 
627 209 2 26.5 2.5 17 0 0 0 
628 210 1 30.3165 2.5 17.5774 0 0 0 
629 210 1 28.6835 2.5 17.5774 0 0 0 
630 210 2 29.5 2.5 17 0 0 0 
652 218 1 24.3165 5.5 17.5774 0 0 0 
654 218 2 23.5 5.5 17 0 0 0 
655 219 1 27.3165 5.5 17.5774 0 0 0 
656 219 1 25.6835 5.5 17.5774 0 0 0 
657 219 2 26.5 5.5 17 0 0 0 
658 220 1 30.3165 5.5 17.5774 0 0 0 
659 220 1 28.6835 5.5 17.5774 0 0 0 
660 220 2 29.5 5.5 17 0 0 0 
922 308 1 24.3165 2.5 20.5774 0 0 0 
924 308 2 23.5 2.5 20 0 0 0 
925 309 1 27.3165 2.5 20.5774 0 0 0 
926 309 1 25.6835 2.5 20.5774 0 0 0 
927 309 2 26.5 2.5 20 0 0 0 
928 310 1 30.3165 2.5 20.5774 0 0 0 
929 310 1 28.6835 2.5 20.5774 0 0 0 
930 310 2 29.5 2.5 20 0 0 0 
952 318 1 24.3165 5.5 20.5774 0 0 0 
954 318 2 23.5 5.5 20 0 0 0 
955 319 1 27.3165 5.5 20.5774 0 0 0 
956 319 1 25.6835 5.5 20.5774 0 0 0 
957 319 2 26.5 5.5 20 0 0 0 
958 320 1 30.3165 5.5 20.5774 0 0 0 
959 320 1 28.6835 5.5 20.5774 0 0 0 
960 320 2 29.5 5.5 20 0 0 0 
661 221 1 3.31649 8.5 17.5774 0 0 0 
662 221 1 1.68351 8.5 17.5774 0 0 0 
663 221 2 2.5 8.5 17 0 0 0 
664 222 1 6.31649 8.5 17.5774 0 0 0 
665 222 1 4.68351 8.5 17.5774 0 0 0 
666 222 2 5.5 8.5 17 0 0 0 
691 231 1 3.31649 11.5 17.5774 0 0 0 
692 231 1 1.68351 11.5 17.5774 0 0 0 
693 231 2 2.5 11.5 17 0 0 0 
694 232 1 6.31649 11.5 17.5774 0 0 0 
695 232 1 4.68351 11.5 17.5774 0 0 0 
696 232 2 5.5 11.5 17 0 0 0 
721 241 1 3.31649 14.5 17.5774 0 0 0 
722 241 1 1.68351 14.5 17.5774 0 0 0 
723 241 2 2.5 14.5 17 0 0 0 
724 242 1 6.31649 14.5 17.5774 0 0 0 
725 242 1 4.68351 14.5 17.5774 0 0 0 
726 242 2 5.5 14.5 17 0 0 0 
961 321 1 3.31649 8.5 20.5774 0 0 0 
962 321 1 1.68351 8.5 20.5774 0 0 0 
963 321 2 2.5 8.5 20 0 0 0 
964 322 1 6.31649 8.5 20.5774 0 0 0 
965 322 1 4.68351 8.5 20.5774 0 0 0 
966 322 2 5.5 8.5 20 0 0 0 
991 331 1 3.31649 11.5 20.5774 0 0 0 
992 331 1 1.68351 11.5 20.5774 0 0 0 
993 331 2 2.5 11.5 20 0 0 0 
994 332 1 6.31649 11.5 20.5774 0 0 0 
995 332 1 4.68351 11.5 20.5774 0 0 0 
996 332 2 5.5 11.5 20 0 0 0 
1021 341 1 3.31649 14.5 20.5774 0 0 0 
1022 341 1 1.68351 14.5 20.5774 0 0 0 
1023 341 2 2.5 14.5 20 0 0 0 
1024 342 1 6.31649 14.5 20.5774 0 0 0 
1025 342 1 4.68351 14.5 20.5774 0 0 0 
1026 342 2 5.5 14.5 20 0 0 0 
667 223 1 9.31649 8.5 17.5774 0 0 0 
668 223 1 7.68351 8.5 17.5774 0 0 0 
669 223 2 8.5 8.5 17 0 0 0 
670 224 1 12.3165 8.5 17.5774 0 0 0 
671 224 1 10.6835 8.5 17.5774 0 0 0 
672 224 2 11.5 8.5 17 0 0 0 
674 225 1 13.6835 8.5 17.5774 0 0 0 
675 225 2 14.5 8.5 17 0 0 0 
697 233 1 9.31649 11.5 17.5774 0 0 0 
698 233 1 7.68351 11.5 17.5774 0 0 0 
699 233 2 8.5 11.5 17 0 0 0 
700 234 1 12.3165 11.5 17.5774 0 0 0 
701 234 1 10.6835 11.5 17.5774 0 0 0 
702 234 2 11.5 11.5 17 0 0 0 
704 235 1 13.6835 11.5 17.5774 0 0 0 
705 235 2 14.5 11.5 17 0 0 0 
727 243 1 9.31649 14.5 17.5774 0 0 0 
728 243 1 7.68351 14.5 17.5774 0 0 0 
729 243 2 8.5 14.5 17 0 0 0 
730 244 1 12.3165 14.5 17.5774 0 0 0 
731 244 1 10.6835 14.5 17.5774 0 0 0 
732 244 2 11.5 14.5 17 0 0 0 
734 245 1 13.6835 14.5 17.5774 0 0 0 
735 245 2 14.5 14.5 17 0 0 0 
967 323 1 9.31649 8.5 20.5774 0 0 0 
968 323 1 7.68351 8.5 20.5774 0 0 0 
969 323 2 8.5 8.5 20 0 0 0 
970 324 1 12.3165 8.5 20.5774 0 0 0 
971 324 1 10.6835 8.5 20.5774 0 0 0 
972 324 2 11.5 8.5 20 0 0 0 
974 325 1 13.6835 8.5 20.5774 0 0 0 
975 325 2 14.5 8.5 20 0 0 0 
997 333 1 9.31649 11.5 20.5774 0 0 0 
998 333 1 7.68351 11.5 20.5774 0 0 0 
999 333 2 8.5 11.5 20 0 0 0 
1000 334 1 12.3165 11.5 20.5774 0 0 0 
1001 334 1 10.6835 11.5 20.5774 0 0 0 
1002 334 2 11.5 11.5 20 0 0 0 
1004 335 1 13.6835 11.5 20.5774 0 0 0 
1005 335 2 14.5 11.5 20 0 0 0 
1027 343 1 9.31649 14.5 20.5774 0 0 0 
1028 343 1 7.68351 14.5 20.5774 0 0 0 
1029 343 2 8.5 14.5 20 0 0 0 
1030 344 1 12.3165 14.5 20.5774 0 0 0 
1031 344 1 10.6835 14.5 20.5774 0 0 0 
1032 344 2 11.5 14.5 20 0 0 0 
1034 345 1 13.6835 14.5 20.5774 0 0 0 
1035 345 2 14.5 14.5 20 0 0 0 
673 225 1 15.3165 8.5 17.5774 0 0 0 
676 226 1 18.3165 8.5 17.5774 0 0 0 
677 226 1 16.6835 8.5 17.5774 0 0 0 
678 226 2 17.5 8.5 17 0 0 0 
679 227 1 21.3165 8.5 17.5774 0 0 0 
680 227 1 19.6835 8.5 17.5774 0 0 0 
681 227 2 20.5 8.5 17 0 0 0 
683 228 1 22.6835 8.5 17.5774 0 0 0 
703 235 1 15.3165 11.5 17.5774 0 0 0 
706 236 1 18.3165 11.5 17.5774 0 0 0 
707 236 1 16.6835 11.5 17.5774 0 0 0 
708 236 2 17.5 11.5 17 0 0 0 
709 237 1 21.3165 11.5 17.5774 0 0 0 
710 237 1 19.6835 11.5 17.5774 0 0 0 
711 237 2 20.5 11.5 17 0 0 0 
713 238 1 22.6835 11.5 17.5774 0 0 0 
733 245 1 15.3165 14.5 17.5774 0 0 0 
736 246 1 18.3165 14.5 17.5774 0 0 0 
737 246 1 16.6835 14.5 17.5774 0 0 0 
738 246 2 17.5 14.5 17 0 0 0 
739 247 1 21.3165 14.5 17.5774 0 0 0 
740 247 1 19.6835 14.5 17.5774 0 0 0 
741 247 2 20.5 14.5 17 0 0 0 
743 248 1 22.6835 14.5 17.5774 0 0 0 
973 325 1 15.3165 8.5 20.5774 0 0 0 
976 326 1 18.3165 8.5 20.5774 0 0 0 
977 326 1 16.6835 8.5 20.5774 0 0 0 
978 326 2 17.5 8.5 20 0 0 0 
979 327 1 21.3165 8.5 20.5774 0 0 0 
980 327 1 19.6835 8.5 20.5774 0 0 0 
981 327 2 20.5 8.5 20 0 0 0 
983 328 1 22.6835 8.5 20.5774 0 0 0 
1003 335 1 15.3165 11.5 20.5774 0 0 0 
1006 336 1 18.3165 11.5 20.5774 0 0 0 
1007 336 1 16.6835 11.5 20.5774 0 0 0 
1008 336 2 17.5 11.5 20 0 0 0 
1009 337 1 21.3165 11.5 20.5774 0 0 0 
1010 337 1 19.6835 11.5 20.5774 0 0 0 
1011 337 2 20.5 11.5 20 0 0 0 
1013 338 1 22.6835 11.5 20.5774 0 0 0 
1033 345 1 15.3165 14.5 20.5774 0 0 0 
1036 346 1 18.3165 14.5 20.5774 0 0 0 
1037 346 1 16.6835 14.5 20.5774 0 0 0 
1038 346 2 17.5 14.5 20 0 0 0 
1039 347 1 21.3165 14.5 20.5774 0 0 0 
1040 347 1 19.6835 14.5 20.5774 0 0 0 
1041 347 2 20.5 14.5 20 0 0 0 
1043 348 1 22.6835 14.5 20.5774 0 0 0 
682 228 1 24.3165 8.5 17.5774 0 0 0 
684 228 2 23.5 8.5 17 0 0 0 
685 229 1 27.3165 8.5 17.5774 0 0 0 
686 229 1 25.6835 8.5 17.5774 0 0 0 
687 229 2 26.5 8.5 17 0 0 0 
688 230 1 30.3165 8.5 17.5774 0 0 0 
689 230 1 28.6835 8.5 17.5774 0 0 0 
690 230 2 29.5 8.5 17 0 0 0 
712 238 1 24.3165 11.5 17.5774 0 0 0 
714 238 2 23.5 11.5 17 0 0 0 
715 239 1 27.3165 11.5 17.5774 0 0 0 
716 239 1 25.6835 11.5 17.5774 0 0 0 
717 239 2 26.5 11.5 17 0 0 0 