ITEM: TIMESTEP
0
ITEM: NUMBER OF ATOMS
4092
ITEM: BOX BOUNDS pp pp pp
-1.0000000000000000e+00 3.1000000000000000e+01
-1.0000000000000000e+00 3.1000000000000000e+01
-1.0000000000000000e+00 1.0100000000000000e+02
ITEM: ATOMS id mol type x y z ix iy iz 
3001 1001 3 -0.614878 -0.355 1 0 0 0 
3002 1001 3 0.614878 0.355 1 0 0 0 
3003 1002 3 0.614878 1.775 1 0 0 0 
3004 1002 3 1.84463 2.485 1 0 0 0 
3005 1003 3 1.84463 3.905 1 0 0 0 
3006 1003 3 3.07439 4.615 1 0 0 0 
3007 1004 3 3.07439 6.035 1 0 0 0 
3008 1004 3 4.30415 6.745 1 0 0 0 
3029 1015 3 1.84463 -0.355 1 0 0 0 
3030 1015 3 3.07439 0.355 1 0 0 0 
3031 1016 3 3.07439 1.775 1 0 0 0 
3032 1016 3 4.30415 2.485 1 0 0 0 
3033 1017 3 4.30415 3.905 1 0 0 0 
3034 1017 3 5.5339 4.615 1 0 0 0 
3035 1018 3 5.5339 6.035 1 0 0 0 
3036 1018 3 6.76366 6.745 1 0 0 0 
3057 1029 3 4.30415 -0.355 1 0 0 0 
3058 1029 3 5.5339 0.355 1 0 0 0 
3059 1030 3 5.5339 1.775 1 0 0 0 
3060 1030 3 6.76366 2.485 1 0 0 0 
3061 1031 3 6.76366 3.905 1 0 0 0 
3085 1043 3 6.76366 -0.355 1 0 0 0 
3316 1158 3 -0.64122 6.745 1 1 0 0 
3340 1170 3 -0.64122 2.485 1 1 0 0 
3341 1171 3 -0.64122 3.905 1 1 0 0 
3342 1171 3 0.588536 4.615 1 1 0 0 
3343 1172 3 0.588536 6.035 1 1 0 0 
3344 1172 3 1.81829 6.745 1 1 0 0 
3365 1183 3 -0.614878 1.065 4 0 0 0 
3366 1183 3 0.614878 1.775 4 0 0 0 
3367 1184 3 0.614878 3.195 4 0 0 0 
3368 1184 3 1.84463 3.905 4 0 0 0 
3369 1185 3 1.84463 5.325 4 0 0 0 
3370 1185 3 3.07439 6.035 4 0 0 0 
3393 1197 3 1.84463 1.065 4 0 0 0 
3394 1197 3 3.07439 1.775 4 0 0 0 
3395 1198 3 3.07439 3.195 4 0 0 0 
3396 1198 3 4.30415 3.905 4 0 0 0 
3397 1199 3 4.30415 5.325 4 0 0 0 
3398 1199 3 5.5339 6.035 4 0 0 0 
3421 1211 3 4.30415 1.065 4 0 0 0 
3422 1211 3 5.5339 1.775 4 0 0 0 
3423 1212 3 5.5339 3.195 4 0 0 0 
3424 1212 3 6.76366 3.905 4 0 0 0 
3425 1213 3 6.76366 5.325 4 0 0 0 
3449 1225 3 6.76366 1.065 4 0 0 0 
3704 1352 3 -0.64122 3.905 4 1 0 0 
3705 1353 3 -0.64122 5.325 4 1 0 0 
3706 1353 3 0.588536 6.035 4 1 0 0 
3062 1031 3 7.99341 4.615 1 0 0 0 
3063 1032 3 7.99341 6.035 1 0 0 0 
3064 1032 3 9.22317 6.745 1 0 0 0 
3086 1043 3 7.99341 0.355 1 0 0 0 
3087 1044 3 7.99341 1.775 1 0 0 0 
3088 1044 3 9.22317 2.485 1 0 0 0 
3089 1045 3 9.22317 3.905 1 0 0 0 
3090 1045 3 10.4529 4.615 1 0 0 0 
3091 1046 3 10.4529 6.035 1 0 0 0 
3092 1046 3 11.6827 6.745 1 0 0 0 
3113 1057 3 9.22317 -0.355 1 0 0 0 
3114 1057 3 10.4529 0.355 1 0 0 0 
3115 1058 3 10.4529 1.775 1 0 0 0 
3116 1058 3 11.6827 2.485 1 0 0 0 
3117 1059 3 11.6827 3.905 1 0 0 0 
3118 1059 3 12.9124 4.615 1 0 0 0 
3119 1060 3 12.9124 6.035 1 0 0 0 
3120 1060 3 14.1422 6.745 1 0 0 0 
3141 1071 3 11.6827 -0.355 1 0 0 0 
3142 1071 3 12.9124 0.355 1 0 0 0 
3143 1072 3 12.9124 1.775 1 0 0 0 
3144 1072 3 14.1422 2.485 1 0 0 0 
3145 1073 3 14.1422 3.905 1 0 0 0 
3169 1085 3 14.1422 -0.355 1 0 0 0 
3426 1213 3 7.99341 6.035 4 0 0 0 
3450 1225 3 7.99341 1.775 4 0 0 0 
3451 1226 3 7.99341 3.195 4 0 0 0 
3452 1226 3 9.22317 3.905 4 0 0 0 
3453 1227 3 9.22317 5.325 4 0 0 0 
3454 1227 3 10.4529 6.035 4 0 0 0 
3477 1239 3 9.22317 1.065 4 0 0 0 
3478 1239 3 10.4529 1.775 4 0 0 0 
3479 1240 3 10.4529 3.195 4 0 0 0 
3480 1240 3 11.6827 3.905 4 0 0 0 
3481 1241 3 11.6827 5.325 4 0 0 0 
3482 1241 3 12.9124 6.035 4 0 0 0 
3505 1253 3 11.6827 1.065 4 0 0 0 
3506 1253 3 12.9124 1.775 4 0 0 0 
3507 1254 3 12.9124 3.195 4 0 0 0 
3508 1254 3 14.1422 3.905 4 0 0 0 
3509 1255 3 14.1422 5.325 4 0 0 0 
3533 1267 3 14.1422 1.065 4 0 0 0 
3146 1073 3 15.372 4.615 1 0 0 0 
3147 1074 3 15.372 6.035 1 0 0 0 
3148 1074 3 16.6017 6.745 1 0 0 0 
3170 1085 3 15.372 0.355 1 0 0 0 
3171 1086 3 15.372 1.775 1 0 0 0 
3172 1086 3 16.6017 2.485 1 0 0 0 
3173 1087 3 16.6017 3.905 1 0 0 0 
3174 1087 3 17.8315 4.615 1 0 0 0 
3175 1088 3 17.8315 6.035 1 0 0 0 
3176 1088 3 19.0612 6.745 1 0 0 0 
3197 1099 3 16.6017 -0.355 1 0 0 0 
3198 1099 3 17.8315 0.355 1 0 0 0 
3199 1100 3 17.8315 1.775 1 0 0 0 
3200 1100 3 19.0612 2.485 1 0 0 0 
3201 1101 3 19.0612 3.905 1 0 0 0 
3202 1101 3 20.291 4.615 1 0 0 0 
3203 1102 3 20.291 6.035 1 0 0 0 
3204 1102 3 21.5207 6.745 1 0 0 0 
3225 1113 3 19.0612 -0.355 1 0 0 0 
3226 1113 3 20.291 0.355 1 0 0 0 
3227 1114 3 20.291 1.775 1 0 0 0 
3228 1114 3 21.5207 2.485 1 0 0 0 
3229 1115 3 21.5207 3.905 1 0 0 0 
3230 1115 3 22.7505 4.615 1 0 0 0 
3231 1116 3 22.7505 6.035 1 0 0 0 
3253 1127 3 21.5207 -0.355 1 0 0 0 
3254 1127 3 22.7505 0.355 1 0 0 0 
3255 1128 3 22.7505 1.775 1 0 0 0 
3510 1255 3 15.372 6.035 4 0 0 0 
3534 1267 3 15.372 1.775 4 0 0 0 
3535 1268 3 15.372 3.195 4 0 0 0 
3536 1268 3 16.6017 3.905 4 0 0 0 
3537 1269 3 16.6017 5.325 4 0 0 0 
3538 1269 3 17.8315 6.035 4 0 0 0 
3561 1281 3 16.6017 1.065 4 0 0 0 
3562 1281 3 17.8315 1.775 4 0 0 0 
3563 1282 3 17.8315 3.195 4 0 0 0 
3564 1282 3 19.0612 3.905 4 0 0 0 
3565 1283 3 19.0612 5.325 4 0 0 0 
3566 1283 3 20.291 6.035 4 0 0 0 
3589 1295 3 19.0612 1.065 4 0 0 0 
3590 1295 3 20.291 1.775 4 0 0 0 
3591 1296 3 20.291 3.195 4 0 0 0 
3592 1296 3 21.5207 3.905 4 0 0 0 
3593 1297 3 21.5207 5.325 4 0 0 0 
3594 1297 3 22.7505 6.035 4 0 0 0 
3617 1309 3 21.5207 1.065 4 0 0 0 
3618 1309 3 22.7505 1.775 4 0 0 0 
3619 1310 3 22.7505 3.195 4 0 0 0 
3232 1116 3 23.9802 6.745 1 0 0 0 
3256 1128 3 23.9802 2.485 1 0 0 0 
3257 1129 3 23.9802 3.905 1 0 0 0 
3258 1129 3 25.21 4.615 1 0 0 0 
3259 1130 3 25.21 6.035 1 0 0 0 
3260 1130 3 26.4398 6.745 1 0 0 0 
3281 1141 3 23.9802 -0.355 1 0 0 0 
3282 1141 3 25.21 0.355 1 0 0 0 
3283 1142 3 25.21 1.775 1 0 0 0 
3284 1142 3 26.4398 2.485 1 0 0 0 
3285 1143 3 26.4398 3.905 1 0 0 0 
3286 1143 3 27.6695 4.615 1 0 0 0 
3287 1144 3 27.6695 6.035 1 0 0 0 
3288 1144 3 28.8993 6.745 1 0 0 0 
3309 1155 3 26.4398 -0.355 1 0 0 0 
3310 1155 3 27.6695 0.355 1 0 0 0 
3311 1156 3 27.6695 1.775 1 0 0 0 
3312 1156 3 28.8993 2.485 1 0 0 0 
3313 1157 3 28.8993 3.905 1 0 0 0 
3314 1157 3 30.129 4.615 1 0 0 0 
3315 1158 3 30.129 6.035 1 0 0 0 
3337 1169 3 28.8993 -0.355 1 0 0 0 
3338 1169 3 30.129 0.355 1 0 0 0 
3339 1170 3 30.129 1.775 1 0 0 0 
3620 1310 3 23.9802 3.905 4 0 0 0 
3621 1311 3 23.9802 5.325 4 0 0 0 
3622 1311 3 25.21 6.035 4 0 0 0 
3645 1323 3 23.9802 1.065 4 0 0 0 
3646 1323 3 25.21 1.775 4 0 0 0 
3647 1324 3 25.21 3.195 4 0 0 0 
3648 1324 3 26.4398 3.905 4 0 0 0 
3649 1325 3 26.4398 5.325 4 0 0 0 
3650 1325 3 27.6695 6.035 4 0 0 0 
3673 1337 3 26.4398 1.065 4 0 0 0 
3674 1337 3 27.6695 1.775 4 0 0 0 
3675 1338 3 27.6695 3.195 4 0 0 0 
3676 1338 3 28.8993 3.905 4 0 0 0 
3677 1339 3 28.8993 5.325 4 0 0 0 
3678 1339 3 30.129 6.035 4 0 0 0 
3701 1351 3 28.8993 1.065 4 0 0 0 
3702 1351 3 30.129 1.775 4 0 0 0 
3703 1352 3 30.129 3.195 4 0 0 0 
3009 1005 3 4.30415 8.165 1 0 0 0 
3010 1005 3 5.5339 8.875 1 0 0 0 
3011 1006 3 5.5339 10.295 1 0 0 0 
3012 1006 3 6.76366 11.005 1 0 0 0 
3013 1007 3 6.76366 12.425 1 0 0 0 
3037 1019 3 6.76366 8.165 1 0 0 0 
3292 1146 3 -0.64122 11.005 1 1 0 0 
3293 1147 3 -0.64122 12.425 1 1 0 0 
3294 1147 3 0.588536 13.135 1 1 0 0 
3295 1148 3 0.588536 14.555 1 1 0 0 
3317 1159 3 -0.64122 8.165 1 1 0 0 
3318 1159 3 0.588536 8.875 1 1 0 0 
3319 1160 3 0.588536 10.295 1 1 0 0 
3320 1160 3 1.81829 11.005 1 1 0 0 
3321 1161 3 1.81829 12.425 1 1 0 0 
3322 1161 3 3.04805 13.135 1 1 0 0 
3323 1162 3 3.04805 14.555 1 1 0 0 
3345 1173 3 1.81829 8.165 1 1 0 0 
3346 1173 3 3.04805 8.875 1 1 0 0 
3347 1174 3 3.04805 10.295 1 1 0 0 
3348 1174 3 4.2778 11.005 1 1 0 0 
3349 1175 3 4.2778 12.425 1 1 0 0 
3350 1175 3 5.50756 13.135 1 1 0 0 
3351 1176 3 5.50756 14.555 1 1 0 0 
3371 1186 3 3.07439 7.455 4 0 0 0 
3372 1186 3 4.30415 8.165 4 0 0 0 
3373 1187 3 4.30415 9.585 4 0 0 0 
3374 1187 3 5.5339 10.295 4 0 0 0 
3375 1188 3 5.5339 11.715 4 0 0 0 
3376 1188 3 6.76366 12.425 4 0 0 0 
3377 1189 3 6.76366 13.845 4 0 0 0 
3399 1200 3 5.5339 7.455 4 0 0 0 
3400 1200 3 6.76366 8.165 4 0 0 0 
3401 1201 3 6.76366 9.585 4 0 0 0 
3656 1328 3 -0.64122 12.425 4 1 0 0 
3657 1329 3 -0.64122 13.845 4 1 0 0 
3658 1329 3 0.588536 14.555 4 1 0 0 
3680 1340 3 -0.64122 8.165 4 1 0 0 
3681 1341 3 -0.64122 9.585 4 1 0 0 
3682 1341 3 0.588536 10.295 4 1 0 0 
3683 1342 3 0.588536 11.715 4 1 0 0 
3684 1342 3 1.81829 12.425 4 1 0 0 
3685 1343 3 1.81829 13.845 4 1 0 0 
3686 1343 3 3.04805 14.555 4 1 0 0 
3707 1354 3 0.588536 7.455 4 1 0 0 
3708 1354 3 1.81829 8.165 4 1 0 0 
3709 1355 3 1.81829 9.585 4 1 0 0 
3710 1355 3 3.04805 10.295 4 1 0 0 
3711 1356 3 3.04805 11.715 4 1 0 0 
3712 1356 3 4.2778 12.425 4 1 0 0 
3713 1357 3 4.2778 13.845 4 1 0 0 
3714 1357 3 5.50756 14.555 4 1 0 0 
3014 1007 3 7.99341 13.135 1 0 0 0 
3015 1008 3 7.99341 14.555 1 0 0 0 
3038 1019 3 7.99341 8.875 1 0 0 0 
3039 1020 3 7.99341 10.295 1 0 0 0 
3040 1020 3 9.22317 11.005 1 0 0 0 
3041 1021 3 9.22317 12.425 1 0 0 0 
3042 1021 3 10.4529 13.135 1 0 0 0 
3043 1022 3 10.4529 14.555 1 0 0 0 
3065 1033 3 9.22317 8.165 1 0 0 0 
3066 1033 3 10.4529 8.875 1 0 0 0 
3067 1034 3 10.4529 10.295 1 0 0 0 
3068 1034 3 11.6827 11.005 1 0 0 0 
3069 1035 3 11.6827 12.425 1 0 0 0 
3070 1035 3 12.9124 13.135 1 0 0 0 
3071 1036 3 12.9124 14.555 1 0 0 0 
3093 1047 3 11.6827 8.165 1 0 0 0 
3094 1047 3 12.9124 8.875 1 0 0 0 
3095 1048 3 12.9124 10.295 1 0 0 0 
3096 1048 3 14.1422 11.005 1 0 0 0 
3097 1049 3 14.1422 12.425 1 0 0 0 
3121 1061 3 14.1422 8.165 1 0 0 0 
3378 1189 3 7.99341 14.555 4 0 0 0 
3402 1201 3 7.99341 10.295 4 0 0 0 
3403 1202 3 7.99341 11.715 4 0 0 0 
3404 1202 3 9.22317 12.425 4 0 0 0 
3405 1203 3 9.22317 13.845 4 0 0 0 
3406 1203 3 10.4529 14.555 4 0 0 0 
3427 1214 3 7.99341 7.455 4 0 0 0 
3428 1214 3 9.22317 8.165 4 0 0 0 
3429 1215 3 9.22317 9.585 4 0 0 0 
3430 1215 3 10.4529 10.295 4 0 0 0 
3431 1216 3 10.4529 11.715 4 0 0 0 
3432 1216 3 11.6827 12.425 4 0 0 0 
3433 1217 3 11.6827 13.845 4 0 0 0 
3434 1217 3 12.9124 14.555 4 0 0 0 
3455 1228 3 10.4529 7.455 4 0 0 0 
3456 1228 3 11.6827 8.165 4 0 0 0 
3457 1229 3 11.6827 9.585 4 0 0 0 
3458 1229 3 12.9124 10.295 4 0 0 0 
3459 1230 3 12.9124 11.715 4 0 0 0 
3460 1230 3 14.1422 12.425 4 0 0 0 
3461 1231 3 14.1422 13.845 4 0 0 0 
3483 1242 3 12.9124 7.455 4 0 0 0 
3484 1242 3 14.1422 8.165 4 0 0 0 
3485 1243 3 14.1422 9.585 4 0 0 0 
3098 1049 3 15.372 13.135 1 0 0 0 
3099 1050 3 15.372 14.555 1 0 0 0 
3122 1061 3 15.372 8.875 1 0 0 0 
3123 1062 3 15.372 10.295 1 0 0 0 
3124 1062 3 16.6017 11.005 1 0 0 0 
3125 1063 3 16.6017 12.425 1 0 0 0 
3126 1063 3 17.8315 13.135 1 0 0 0 
3127 1064 3 17.8315 14.555 1 0 0 0 
3149 1075 3 16.6017 8.165 1 0 0 0 
3150 1075 3 17.8315 8.875 1 0 0 0 
3151 1076 3 17.8315 10.295 1 0 0 0 
3152 1076 3 19.0612 11.005 1 0 0 0 
3153 1077 3 19.0612 12.425 1 0 0 0 
3154 1077 3 20.291 13.135 1 0 0 0 
3155 1078 3 20.291 14.555 1 0 0 0 
3177 1089 3 19.0612 8.165 1 0 0 0 
3178 1089 3 20.291 8.875 1 0 0 0 
3179 1090 3 20.291 10.295 1 0 0 0 
3180 1090 3 21.5207 11.005 1 0 0 0 
3181 1091 3 21.5207 12.425 1 0 0 0 
3182 1091 3 22.7505 13.135 1 0 0 0 
3183 1092 3 22.7505 14.555 1 0 0 0 
3205 1103 3 21.5207 8.165 1 0 0 0 
3206 1103 3 22.7505 8.875 1 0 0 0 
3207 1104 3 22.7505 10.295 1 0 0 0 
3462 1231 3 15.372 14.555 4 0 0 0 
3486 1243 3 15.372 10.295 4 0 0 0 
3487 1244 3 15.372 11.715 4 0 0 0 
3488 1244 3 16.6017 12.425 4 0 0 0 
3489 1245 3 16.6017 13.845 4 0 0 0 
3490 1245 3 17.8315 14.555 4 0 0 0 
3511 1256 3 15.372 7.455 4 0 0 0 
3512 1256 3 16.6017 8.165 4 0 0 0 
3513 1257 3 16.6017 9.585 4 0 0 0 
3514 1257 3 17.8315 10.295 4 0 0 0 
3515 1258 3 17.8315 11.715 4 0 0 0 
3516 1258 3 19.0612 12.425 4 0 0 0 
3517 1259 3 19.0612 13.845 4 0 0 0 
3518 1259 3 20.291 14.555 4 0 0 0 
3539 1270 3 17.8315 7.455 4 0 0 0 
3540 1270 3 19.0612 8.165 4 0 0 0 
3541 1271 3 19.0612 9.585 4 0 0 0 
3542 1271 3 20.291 10.295 4 0 0 0 
3543 1272 3 20.291 11.715 4 0 0 0 
3544 1272 3 21.5207 12.425 4 0 0 0 
3545 1273 3 21.5207 13.845 4 0 0 0 
3546 1273 3 22.7505 14.555 4 0 0 0 
3567 1284 3 20.291 7.455 4 0 0 0 
3568 1284 3 21.5207 8.165 4 0 0 0 
3569 1285 3 21.5207 9.585 4 0 0 0 
3570 1285 3 22.7505 10.295 4 0 0 0 
3571 1286 3 22.7505 11.715 4 0 0 0 
3595 1298 3 22.7505 7.455 4 0 0 0 
3208 1104 3 23.9802 11.005 1 0 0 0 
3209 1105 3 23.9802 12.425 1 0 0 0 
3210 1105 3 25.21 13.135 1 0 0 0 
3211 1106 3 25.21 14.555 1 0 0 0 
3233 1117 3 23.9802 8.165 1 0 0 0 
3234 1117 3 25.21 8.875 1 0 0 0 
3235 1118 3 25.21 10.295 1 0 0 0 
3236 1118 3 26.4398 11.005 1 0 0 0 
3237 1119 3 26.4398 12.425 1 0 0 0 
3238 1119 3 27.6695 13.135 1 0 0 0 
3239 1120 3 27.6695 14.555 1 0 0 0 
3261 1131 3 26.4398 8.165 1 0 0 0 
3262 1131 3 27.6695 8.875 1 0 0 0 
3263 1132 3 27.6695 10.295 1 0 0 0 
3264 1132 3 28.8993 11.005 1 0 0 0 
3265 1133 3 28.8993 12.425 1 0 0 0 
3266 1133 3 30.129 13.135 1 0 0 0 
3267 1134 3 30.129 14.555 1 0 0 0 
3289 1145 3 28.8993 8.165 1 0 0 0 
3290 1145 3 30.129 8.875 1 0 0 0 
3291 1146 3 30.129 10.295 1 0 0 0 
3572 1286 3 23.9802 12.425 4 0 0 0 
3573 1287 3 23.9802 13.845 4 0 0 0 
3574 1287 3 25.21 14.555 4 0 0 0 
3596 1298 3 23.9802 8.165 4 0 0 0 
3597 1299 3 23.9802 9.585 4 0 0 0 
3598 1299 3 25.21 10.295 4 0 0 0 
3599 1300 3 25.21 11.715 4 0 0 0 
3600 1300 3 26.4398 12.425 4 0 0 0 
3601 1301 3 26.4398 13.845 4 0 0 0 
3602 1301 3 27.6695 14.555 4 0 0 0 
3623 1312 3 25.21 7.455 4 0 0 0 
3624 1312 3 26.4398 8.165 4 0 0 0 
3625 1313 3 26.4398 9.585 4 0 0 0 
3626 1313 3 27.6695 10.295 4 0 0 0 
3627 1314 3 27.6695 11.715 4 0 0 0 
3628 1314 3 28.8993 12.425 4 0 0 0 
3629 1315 3 28.8993 13.845 4 0 0 0 
3630 1315 3 30.129 14.555 4 0 0 0 
3651 1326 3 27.6695 7.455 4 0 0 0 
3652 1326 3 28.8993 8.165 4 0 0 0 
3653 1327 3 28.8993 9.585 4 0 0 0 
3654 1327 3 30.129 10.295 4 0 0 0 
3655 1328 3 30.129 11.715 4 0 0 0 
3679 1340 3 30.129 7.455 4 0 0 0 
3244 1122 3 -0.64122 19.525 1 1 0 0 
3245 1123 3 -0.64122 20.945 1 1 0 0 
3246 1123 3 0.588536 21.655 1 1 0 0 
3268 1134 3 -0.64122 15.265 1 1 0 0 
3269 1135 3 -0.64122 16.685 1 1 0 0 
3270 1135 3 0.588536 17.395 1 1 0 0 
3271 1136 3 0.588536 18.815 1 1 0 0 
3272 1136 3 1.81829 19.525 1 1 0 0 
3273 1137 3 1.81829 20.945 1 1 0 0 
3274 1137 3 3.04805 21.655 1 1 0 0 
3296 1148 3 1.81829 15.265 1 1 0 0 
3297 1149 3 1.81829 16.685 1 1 0 0 
3298 1149 3 3.04805 17.395 1 1 0 0 
3299 1150 3 3.04805 18.815 1 1 0 0 
3300 1150 3 4.2778 19.525 1 1 0 0 
3301 1151 3 4.2778 20.945 1 1 0 0 
3302 1151 3 5.50756 21.655 1 1 0 0 
3324 1162 3 4.2778 15.265 1 1 0 0 
3325 1163 3 4.2778 16.685 1 1 0 0 
3326 1163 3 5.50756 17.395 1 1 0 0 
3327 1164 3 5.50756 18.815 1 1 0 0 
3328 1164 3 6.73732 19.525 1 1 0 0 
3329 1165 3 6.73732 20.945 1 1 0 0 
3352 1176 3 6.73732 15.265 1 1 0 0 
3353 1177 3 6.73732 16.685 1 1 0 0 
3608 1304 3 -0.64122 20.945 4 1 0 0 
3609 1305 3 -0.64122 22.365 4 1 0 0 
3632 1316 3 -0.64122 16.685 4 1 0 0 
3633 1317 3 -0.64122 18.105 4 1 0 0 
3634 1317 3 0.588536 18.815 4 1 0 0 
3635 1318 3 0.588536 20.235 4 1 0 0 
3636 1318 3 1.81829 20.945 4 1 0 0 
3637 1319 3 1.81829 22.365 4 1 0 0 
3659 1330 3 0.588536 15.975 4 1 0 0 
3660 1330 3 1.81829 16.685 4 1 0 0 
3661 1331 3 1.81829 18.105 4 1 0 0 
3662 1331 3 3.04805 18.815 4 1 0 0 
3663 1332 3 3.04805 20.235 4 1 0 0 
3664 1332 3 4.2778 20.945 4 1 0 0 
3665 1333 3 4.2778 22.365 4 1 0 0 
3687 1344 3 3.04805 15.975 4 1 0 0 
3688 1344 3 4.2778 16.685 4 1 0 0 
3689 1345 3 4.2778 18.105 4 1 0 0 
3690 1345 3 5.50756 18.815 4 1 0 0 
3691 1346 3 5.50756 20.235 4 1 0 0 
3692 1346 3 6.73732 20.945 4 1 0 0 
3693 1347 3 6.73732 22.365 4 1 0 0 
3715 1358 3 5.50756 15.975 4 1 0 0 
3716 1358 3 6.73732 16.685 4 1 0 0 
3717 1359 3 6.73732 18.105 4 1 0 0 
3016 1008 3 9.22317 15.265 1 0 0 0 
3017 1009 3 9.22317 16.685 1 0 0 0 
3018 1009 3 10.4529 17.395 1 0 0 0 
3019 1010 3 10.4529 18.815 1 0 0 0 
3020 1010 3 11.6827 19.525 1 0 0 0 
3021 1011 3 11.6827 20.945 1 0 0 0 
3022 1011 3 12.9124 21.655 1 0 0 0 
3044 1022 3 11.6827 15.265 1 0 0 0 
3045 1023 3 11.6827 16.685 1 0 0 0 
3046 1023 3 12.9124 17.395 1 0 0 0 
3047 1024 3 12.9124 18.815 1 0 0 0 
3048 1024 3 14.1422 19.525 1 0 0 0 
3049 1025 3 14.1422 20.945 1 0 0 0 
3072 1036 3 14.1422 15.265 1 0 0 0 
3073 1037 3 14.1422 16.685 1 0 0 0 
3330 1165 3 7.96707 21.655 1 1 0 0 
3354 1177 3 7.96707 17.395 1 1 0 0 
3355 1178 3 7.96707 18.815 1 1 0 0 
3356 1178 3 9.19683 19.525 1 1 0 0 
3357 1179 3 9.19683 20.945 1 1 0 0 
3358 1179 3 10.4266 21.655 1 1 0 0 
3379 1190 3 7.99341 15.975 4 0 0 0 
3380 1190 3 9.22317 16.685 4 0 0 0 
3381 1191 3 9.22317 18.105 4 0 0 0 
3382 1191 3 10.4529 18.815 4 0 0 0 
3383 1192 3 10.4529 20.235 4 0 0 0 
3384 1192 3 11.6827 20.945 4 0 0 0 
3385 1193 3 11.6827 22.365 4 0 0 0 
3407 1204 3 10.4529 15.975 4 0 0 0 
3408 1204 3 11.6827 16.685 4 0 0 0 
3409 1205 3 11.6827 18.105 4 0 0 0 
3410 1205 3 12.9124 18.815 4 0 0 0 
3411 1206 3 12.9124 20.235 4 0 0 0 
3412 1206 3 14.1422 20.945 4 0 0 0 
3413 1207 3 14.1422 22.365 4 0 0 0 
3435 1218 3 12.9124 15.975 4 0 0 0 
3436 1218 3 14.1422 16.685 4 0 0 0 
3437 1219 3 14.1422 18.105 4 0 0 0 
3718 1359 3 7.96707 18.815 4 1 0 0 
3719 1360 3 7.96707 20.235 4 1 0 0 
3720 1360 3 9.19683 20.945 4 1 0 0 
3721 1361 3 9.19683 22.365 4 1 0 0 
3050 1025 3 15.372 21.655 1 0 0 0 
3074 1037 3 15.372 17.395 1 0 0 0 
3075 1038 3 15.372 18.815 1 0 0 0 
3076 1038 3 16.6017 19.525 1 0 0 0 
3077 1039 3 16.6017 20.945 1 0 0 0 
3078 1039 3 17.8315 21.655 1 0 0 0 
3100 1050 3 16.6017 15.265 1 0 0 0 
3101 1051 3 16.6017 16.685 1 0 0 0 
3102 1051 3 17.8315 17.395 1 0 0 0 
3103 1052 3 17.8315 18.815 1 0 0 0 
3104 1052 3 19.0612 19.525 1 0 0 0 
3105 1053 3 19.0612 20.945 1 0 0 0 
3106 1053 3 20.291 21.655 1 0 0 0 
3128 1064 3 19.0612 15.265 1 0 0 0 
3129 1065 3 19.0612 16.685 1 0 0 0 
3130 1065 3 20.291 17.395 1 0 0 0 
3131 1066 3 20.291 18.815 1 0 0 0 
3132 1066 3 21.5207 19.525 1 0 0 0 
3133 1067 3 21.5207 20.945 1 0 0 0 
3134 1067 3 22.7505 21.655 1 0 0 0 
3156 1078 3 21.5207 15.265 1 0 0 0 
3157 1079 3 21.5207 16.685 1 0 0 0 
3158 1079 3 22.7505 17.395 1 0 0 0 
3159 1080 3 22.7505 18.815 1 0 0 0 
3438 1219 3 15.372 18.815 4 0 0 0 
3439 1220 3 15.372 20.235 4 0 0 0 
3440 1220 3 16.6017 20.945 4 0 0 0 
3441 1221 3 16.6017 22.365 4 0 0 0 
3463 1232 3 15.372 15.975 4 0 0 0 
3464 1232 3 16.6017 16.685 4 0 0 0 
3465 1233 3 16.6017 18.105 4 0 0 0 
3466 1233 3 17.8315 18.815 4 0 0 0 
3467 1234 3 17.8315 20.235 4 0 0 0 
3468 1234 3 19.0612 20.945 4 0 0 0 
3469 1235 3 19.0612 22.365 4 0 0 0 
3491 1246 3 17.8315 15.975 4 0 0 0 
3492 1246 3 19.0612 16.685 4 0 0 0 
3493 1247 3 19.0612 18.105 4 0 0 0 
3494 1247 3 20.291 18.815 4 0 0 0 
3495 1248 3 20.291 20.235 4 0 0 0 
3496 1248 3 21.5207 20.945 4 0 0 0 
3497 1249 3 21.5207 22.365 4 0 0 0 
3519 1260 3 20.291 15.975 4 0 0 0 
3520 1260 3 21.5207 16.685 4 0 0 0 
3521 1261 3 21.5207 18.105 4 0 0 0 
3522 1261 3 22.7505 18.815 4 0 0 0 
3523 1262 3 22.7505 20.235 4 0 0 0 
3547 1274 3 22.7505 15.975 4 0 0 0 
3160 1080 3 23.9802 19.525 1 0 0 0 
3161 1081 3 23.9802 20.945 1 0 0 0 
3162 1081 3 25.21 21.655 1 0 0 0 
3184 1092 3 23.9802 15.265 1 0 0 0 
3185 1093 3 23.9802 16.685 1 0 0 0 
3186 1093 3 25.21 17.395 1 0 0 0 
3187 1094 3 25.21 18.815 1 0 0 0 
3188 1094 3 26.4398 19.525 1 0 0 0 
3189 1095 3 26.4398 20.945 1 0 0 0 
3190 1095 3 27.6695 21.655 1 0 0 0 
3212 1106 3 26.4398 15.265 1 0 0 0 
3213 1107 3 26.4398 16.685 1 0 0 0 
3214 1107 3 27.6695 17.395 1 0 0 0 
3215 1108 3 27.6695 18.815 1 0 0 0 
3216 1108 3 28.8993 19.525 1 0 0 0 
3217 1109 3 28.8993 20.945 1 0 0 0 
3218 1109 3 30.129 21.655 1 0 0 0 
3240 1120 3 28.8993 15.265 1 0 0 0 
3241 1121 3 28.8993 16.685 1 0 0 0 
3242 1121 3 30.129 17.395 1 0 0 0 
3243 1122 3 30.129 18.815 1 0 0 0 
3524 1262 3 23.9802 20.945 4 0 0 0 
3525 1263 3 23.9802 22.365 4 0 0 0 
3548 1274 3 23.9802 16.685 4 0 0 0 
3549 1275 3 23.9802 18.105 4 0 0 0 
3550 1275 3 25.21 18.815 4 0 0 0 
3551 1276 3 25.21 20.235 4 0 0 0 
3552 1276 3 26.4398 20.945 4 0 0 0 
3553 1277 3 26.4398 22.365 4 0 0 0 
3575 1288 3 25.21 15.975 4 0 0 0 
3576 1288 3 26.4398 16.685 4 0 0 0 
3577 1289 3 26.4398 18.105 4 0 0 0 
3578 1289 3 27.6695 18.815 4 0 0 0 
3579 1290 3 27.6695 20.235 4 0 0 0 
3580 1290 3 28.8993 20.945 4 0 0 0 
3581 1291 3 28.8993 22.365 4 0 0 0 
3603 1302 3 27.6695 15.975 4 0 0 0 
3604 1302 3 28.8993 16.685 4 0 0 0 
3605 1303 3 28.8993 18.105 4 0 0 0 
3606 1303 3 30.129 18.815 4 0 0 0 
3607 1304 3 30.129 20.235 4 0 0 0 
3631 1316 3 30.129 15.975 4 0 0 0 
3196 1098 3 -0.64122 28.045 1 1 0 0 
3220 1110 3 -0.64122 23.785 1 1 0 0 
3221 1111 3 -0.64122 25.205 1 1 0 0 
3222 1111 3 0.588536 25.915 1 1 0 0 
3223 1112 3 0.588536 27.335 1 1 0 0 
3224 1112 3 1.81829 28.045 1 1 0 0 
3247 1124 3 0.588536 23.075 1 1 0 0 
3248 1124 3 1.81829 23.785 1 1 0 0 
3249 1125 3 1.81829 25.205 1 1 0 0 
3250 1125 3 3.04805 25.915 1 1 0 0 
3251 1126 3 3.04805 27.335 1 1 0 0 
3252 1126 3 4.2778 28.045 1 1 0 0 
3275 1138 3 3.04805 23.075 1 1 0 0 
3276 1138 3 4.2778 23.785 1 1 0 0 
3277 1139 3 4.2778 25.205 1 1 0 0 
3278 1139 3 5.50756 25.915 1 1 0 0 
3279 1140 3 5.50756 27.335 1 1 0 0 
3280 1140 3 6.73732 28.045 1 1 0 0 
3303 1152 3 5.50756 23.075 1 1 0 0 
3304 1152 3 6.73732 23.785 1 1 0 0 
3305 1153 3 6.73732 25.205 1 1 0 0 
3560 1280 3 -0.64122 29.465 4 1 0 0 
3584 1292 3 -0.64122 25.205 4 1 0 0 
3585 1293 3 -0.64122 26.625 4 1 0 0 
3586 1293 3 0.588536 27.335 4 1 0 0 
3587 1294 3 0.588536 28.755 4 1 0 0 
3588 1294 3 1.81829 29.465 4 1 0 0 
3610 1305 3 0.588536 23.075 4 1 0 0 
3611 1306 3 0.588536 24.495 4 1 0 0 
3612 1306 3 1.81829 25.205 4 1 0 0 
3613 1307 3 1.81829 26.625 4 1 0 0 
3614 1307 3 3.04805 27.335 4 1 0 0 
3615 1308 3 3.04805 28.755 4 1 0 0 
3616 1308 3 4.2778 29.465 4 1 0 0 
3638 1319 3 3.04805 23.075 4 1 0 0 
3639 1320 3 3.04805 24.495 4 1 0 0 
3640 1320 3 4.2778 25.205 4 1 0 0 
3641 1321 3 4.2778 26.625 4 1 0 0 
3642 1321 3 5.50756 27.335 4 1 0 0 
3643 1322 3 5.50756 28.755 4 1 0 0 
3644 1322 3 6.73732 29.465 4 1 0 0 
3666 1333 3 5.50756 23.075 4 1 0 0 
3667 1334 3 5.50756 24.495 4 1 0 0 
3668 1334 3 6.73732 25.205 4 1 0 0 
3669 1335 3 6.73732 26.625 4 1 0 0 
3023 1012 3 12.9124 23.075 1 0 0 0 
3024 1012 3 14.1422 23.785 1 0 0 0 
3025 1013 3 14.1422 25.205 1 0 0 0 
3306 1153 3 7.96707 25.915 1 1 0 0 
3307 1154 3 7.96707 27.335 1 1 0 0 
3308 1154 3 9.19683 28.045 1 1 0 0 
3331 1166 3 7.96707 23.075 1 1 0 0 
3332 1166 3 9.19683 23.785 1 1 0 0 
3333 1167 3 9.19683 25.205 1 1 0 0 
3334 1167 3 10.4266 25.915 1 1 0 0 
3335 1168 3 10.4266 27.335 1 1 0 0 
3336 1168 3 11.6563 28.045 1 1 0 0 
3359 1180 3 10.4266 23.075 1 1 0 0 
3360 1180 3 11.6563 23.785 1 1 0 0 
3361 1181 3 11.6563 25.205 1 1 0 0 
3362 1181 3 12.8861 25.915 1 1 0 0 
3363 1182 3 12.8861 27.335 1 1 0 0 
3364 1182 3 14.1159 28.045 1 1 0 0 
3386 1193 3 12.9124 23.075 4 0 0 0 
3387 1194 3 12.9124 24.495 4 0 0 0 
3388 1194 3 14.1422 25.205 4 0 0 0 
3389 1195 3 14.1422 26.625 4 0 0 0 
3670 1335 3 7.96707 27.335 4 1 0 0 
3671 1336 3 7.96707 28.755 4 1 0 0 
3672 1336 3 9.19683 29.465 4 1 0 0 
3694 1347 3 7.96707 23.075 4 1 0 0 
3695 1348 3 7.96707 24.495 4 1 0 0 
3696 1348 3 9.19683 25.205 4 1 0 0 
3697 1349 3 9.19683 26.625 4 1 0 0 
3698 1349 3 10.4266 27.335 4 1 0 0 
3699 1350 3 10.4266 28.755 4 1 0 0 
3700 1350 3 11.6563 29.465 4 1 0 0 
3722 1361 3 10.4266 23.075 4 1 0 0 
3723 1362 3 10.4266 24.495 4 1 0 0 
3724 1362 3 11.6563 25.205 4 1 0 0 
3725 1363 3 11.6563 26.625 4 1 0 0 
3726 1363 3 12.8861 27.335 4 1 0 0 
3727 1364 3 12.8861 28.755 4 1 0 0 
3728 1364 3 14.1159 29.465 4 1 0 0 
3026 1013 3 15.372 25.915 1 0 0 0 
3027 1014 3 15.372 27.335 1 0 0 0 
3028 1014 3 16.6017 28.045 1 0 0 0 
3051 1026 3 15.372 23.075 1 0 0 0 
3052 1026 3 16.6017 23.785 1 0 0 0 
3053 1027 3 16.6017 25.205 1 0 0 0 
3054 1027 3 17.8315 25.915 1 0 0 0 
3055 1028 3 17.8315 27.335 1 0 0 0 
3056 1028 3 19.0612 28.045 1 0 0 0 
3079 1040 3 17.8315 23.075 1 0 0 0 
3080 1040 3 19.0612 23.785 1 0 0 0 
3081 1041 3 19.0612 25.205 1 0 0 0 
3082 1041 3 20.291 25.915 1 0 0 0 
3083 1042 3 20.291 27.335 1 0 0 0 
3084 1042 3 21.5207 28.045 1 0 0 0 
3107 1054 3 20.291 23.075 1 0 0 0 
3108 1054 3 21.5207 23.785 1 0 0 0 
3109 1055 3 21.5207 25.205 1 0 0 0 
3110 1055 3 22.7505 25.915 1 0 0 0 
3111 1056 3 22.7505 27.335 1 0 0 0 
3135 1068 3 22.7505 23.075 1 0 0 0 
3390 1195 3 15.372 27.335 4 0 0 0 
3391 1196 3 15.372 28.755 4 0 0 0 
3392 1196 3 16.6017 29.465 4 0 0 0 
3414 1207 3 15.372 23.075 4 0 0 0 
3415 1208 3 15.372 24.495 4 0 0 0 
3416 1208 3 16.6017 25.205 4 0 0 0 
3417 1209 3 16.6017 26.625 4 0 0 0 
3418 1209 3 17.8315 27.335 4 0 0 0 
3419 1210 3 17.8315 28.755 4 0 0 0 
3420 1210 3 19.0612 29.465 4 0 0 0 
3442 1221 3 17.8315 23.075 4 0 0 0 
3443 1222 3 17.8315 24.495 4 0 0 0 
3444 1222 3 19.0612 25.205 4 0 0 0 
3445 1223 3 19.0612 26.625 4 0 0 0 
3446 1223 3 20.291 27.335 4 0 0 0 
3447 1224 3 20.291 28.755 4 0 0 0 
3448 1224 3 21.5207 29.465 4 0 0 0 
3470 1235 3 20.291 23.075 4 0 0 0 
3471 1236 3 20.291 24.495 4 0 0 0 
3472 1236 3 21.5207 25.205 4 0 0 0 
3473 1237 3 21.5207 26.625 4 0 0 0 
3474 1237 3 22.7505 27.335 4 0 0 0 
3475 1238 3 22.7505 28.755 4 0 0 0 
3498 1249 3 22.7505 23.075 4 0 0 0 
3499 1250 3 22.7505 24.495 4 0 0 0 
3112 1056 3 23.9802 28.045 1 0 0 0 
3136 1068 3 23.9802 23.785 1 0 0 0 
3137 1069 3 23.9802 25.205 1 0 0 0 
3138 1069 3 25.21 25.915 1 0 0 0 
3139 1070 3 25.21 27.335 1 0 0 0 
3140 1070 3 26.4398 28.045 1 0 0 0 
3163 1082 3 25.21 23.075 1 0 0 0 
3164 1082 3 26.4398 23.785 1 0 0 0 
3165 1083 3 26.4398 25.205 1 0 0 0 
3166 1083 3 27.6695 25.915 1 0 0 0 
3167 1084 3 27.6695 27.335 1 0 0 0 
3168 1084 3 28.8993 28.045 1 0 0 0 
3191 1096 3 27.6695 23.075 1 0 0 0 
3192 1096 3 28.8993 23.785 1 0 0 0 
3193 1097 3 28.8993 25.205 1 0 0 0 
3194 1097 3 30.129 25.915 1 0 0 0 
3195 1098 3 30.129 27.335 1 0 0 0 
3219 1110 3 30.129 23.075 1 0 0 0 
3476 1238 3 23.9802 29.465 4 0 0 0 
3500 1250 3 23.9802 25.205 4 0 0 0 
3501 1251 3 23.9802 26.625 4 0 0 0 
3502 1251 3 25.21 27.335 4 0 0 0 
3503 1252 3 25.21 28.755 4 0 0 0 
3504 1252 3 26.4398 29.465 4 0 0 0 
3526 1263 3 25.21 23.075 4 0 0 0 
3527 1264 3 25.21 24.495 4 0 0 0 
3528 1264 3 26.4398 25.205 4 0 0 0 
3529 1265 3 26.4398 26.625 4 0 0 0 
3530 1265 3 27.6695 27.335 4 0 0 0 
3531 1266 3 27.6695 28.755 4 0 0 0 
3532 1266 3 28.8993 29.465 4 0 0 0 
3554 1277 3 27.6695 23.075 4 0 0 0 
3555 1278 3 27.6695 24.495 4 0 0 0 
3556 1278 3 28.8993 25.205 4 0 0 0 
3557 1279 3 28.8993 26.625 4 0 0 0 
3558 1279 3 30.129 27.335 4 0 0 0 
3559 1280 3 30.129 28.755 4 0 0 0 
3582 1291 3 30.129 23.075 4 0 0 0 
3583 1292 3 30.129 24.495 4 0 0 0 
1 1 1 3.31649 2.5 11.5774 0 0 0 
2 1 1 1.68351 2.5 11.5774 0 0 0 
3 1 2 2.5 2.5 11 0 0 0 
4 2 1 6.31649 2.5 11.5774 0 0 0 
5 2 1 4.68351 2.5 11.5774 0 0 0 
6 2 2 5.5 2.5 11 0 0 0 
31 11 1 3.31649 5.5 11.5774 0 0 0 
32 11 1 1.68351 5.5 11.5774 0 0 0 
33 11 2 2.5 5.5 11 0 0 0 
34 12 1 6.31649 5.5 11.5774 0 0 0 
35 12 1 4.68351 5.5 11.5774 0 0 0 
36 12 2 5.5 5.5 11 0 0 0 
301 101 1 3.31649 2.5 14.5774 0 0 0 
302 101 1 1.68351 2.5 14.5774 0 0 0 
303 101 2 2.5 2.5 14 0 0 0 
304 102 1 6.31649 2.5 14.5774 0 0 0 
305 102 1 4.68351 2.5 14.5774 0 0 0 
306 102 2 5.5 2.5 14 0 0 0 
331 111 1 3.31649 5.5 14.5774 0 0 0 
332 111 1 1.68351 5.5 14.5774 0 0 0 
333 111 2 2.5 5.5 14 0 0 0 
334 112 1 6.31649 5.5 14.5774 0 0 0 
335 112 1 4.68351 5.5 14.5774 0 0 0 
336 112 2 5.5 5.5 14 0 0 0 
3729 1365 3 -0.614878 -0.355 7 0 0 0 
3730 1365 3 0.614878 0.355 7 0 0 0 
3731 1366 3 0.614878 1.775 7 0 0 0 
3732 1366 3 1.84463 2.485 7 0 0 0 
3733 1367 3 1.84463 3.905 7 0 0 0 
3734 1367 3 3.07439 4.615 7 0 0 0 
3735 1368 3 3.07439 6.035 7 0 0 0 
3736 1368 3 4.30415 6.745 7 0 0 0 
3757 1379 3 1.84463 -0.355 7 0 0 0 
3758 1379 3 3.07439 0.355 7 0 0 0 
3759 1380 3 3.07439 1.775 7 0 0 0 
3760 1380 3 4.30415 2.485 7 0 0 0 
3761 1381 3 4.30415 3.905 7 0 0 0 
3762 1381 3 5.5339 4.615 7 0 0 0 
3763 1382 3 5.5339 6.035 7 0 0 0 
3764 1382 3 6.76366 6.745 7 0 0 0 
3785 1393 3 4.30415 -0.355 7 0 0 0 
3786 1393 3 5.5339 0.355 7 0 0 0 
3787 1394 3 5.5339 1.775 7 0 0 0 
3788 1394 3 6.76366 2.485 7 0 0 0 
3789 1395 3 6.76366 3.905 7 0 0 0 
3813 1407 3 6.76366 -0.355 7 0 0 0 
4044 1522 3 -0.64122 6.745 7 1 0 0 
4068 1534 3 -0.64122 2.485 7 1 0 0 
4069 1535 3 -0.64122 3.905 7 1 0 0 
4070 1535 3 0.588536 4.615 7 1 0 0 
4071 1536 3 0.588536 6.035 7 1 0 0 
4072 1536 3 1.81829 6.745 7 1 0 0 
7 3 1 9.31649 2.5 11.5774 0 0 0 
8 3 1 7.68351 2.5 11.5774 0 0 0 
9 3 2 8.5 2.5 11 0 0 0 
10 4 1 12.3165 2.5 11.5774 0 0 0 
11 4 1 10.6835 2.5 11.5774 0 0 0 
12 4 2 11.5 2.5 11 0 0 0 
14 5 1 13.6835 2.5 11.5774 0 0 0 
15 5 2 14.5 2.5 11 0 0 0 
37 13 1 9.31649 5.5 11.5774 0 0 0 
38 13 1 7.68351 5.5 11.5774 0 0 0 
39 13 2 8.5 5.5 11 0 0 0 
40 14 1 12.3165 5.5 11.5774 0 0 0 
41 14 1 10.6835 5.5 11.5774 0 0 0 
42 14 2 11.5 5.5 11 0 0 0 
44 15 1 13.6835 5.5 11.5774 0 0 0 
45 15 2 14.5 5.5 11 0 0 0 
307 103 1 9.31649 2.5 14.5774 0 0 0 
308 103 1 7.68351 2.5 14.5774 0 0 0 
309 103 2 8.5 2.5 14 0 0 0 
310 104 1 12.3165 2.5 14.5774 0 0 0 
311 104 1 10.6835 2.5 14.5774 0 0 0 
312 104 2 11.5 2.5 14 0 0 0 
314 105 1 13.6835 2.5 14.5774 0 0 0 
315 105 2 14.5 2.5 14 0 0 0 
337 113 1 9.31649 5.5 14.5774 0 0 0 
338 113 1 7.68351 5.5 14.5774 0 0 0 
339 113 2 8.5 5.5 14 0 0 0 
340 114 1 12.3165 5.5 14.5774 0 0 0 
341 114 1 10.6835 5.5 14.5774 0 0 0 
342 114 2 11.5 5.5 14 0 0 0 
344 115 1 13.6835 5.5 14.5774 0 0 0 
345 115 2 14.5 5.5 14 0 0 0 
3790 1395 3 7.99341 4.615 7 0 0 0 
3791 1396 3 7.99341 6.035 7 0 0 0 
3792 1396 3 9.22317 6.745 7 0 0 0 
3814 1407 3 7.99341 0.355 7 0 0 0 
3815 1408 3 7.99341 1.775 7 0 0 0 
3816 1408 3 9.22317 2.485 7 0 0 0 
3817 1409 3 9.22317 3.905 7 0 0 0 
3818 1409 3 10.4529 4.615 7 0 0 0 
3819 1410 3 10.4529 6.035 7 0 0 0 
3820 1410 3 11.6827 6.745 7 0 0 0 
3841 1421 3 9.22317 -0.355 7 0 0 0 
3842 1421 3 10.4529 0.355 7 0 0 0 
3843 1422 3 10.4529 1.775 7 0 0 0 
3844 1422 3 11.6827 2.485 7 0 0 0 
3845 1423 3 11.6827 3.905 7 0 0 0 
3846 1423 3 12.9124 4.615 7 0 0 0 
3847 1424 3 12.9124 6.035 7 0 0 0 
3848 1424 3 14.1422 6.745 7 0 0 0 
3869 1435 3 11.6827 -0.355 7 0 0 0 
3870 1435 3 12.9124 0.355 7 0 0 0 
3871 1436 3 12.9124 1.775 7 0 0 0 
3872 1436 3 14.1422 2.485 7 0 0 0 
3873 1437 3 14.1422 3.905 7 0 0 0 
3897 1449 3 14.1422 -0.355 7 0 0 0 
13 5 1 15.3165 2.5 11.5774 0 0 0 
16 6 1 18.3165 2.5 11.5774 0 0 0 
17 6 1 16.6835 2.5 11.5774 0 0 0 
18 6 2 17.5 2.5 11 0 0 0 
19 7 1 21.3165 2.5 11.5774 0 0 0 
20 7 1 19.6835 2.5 11.5774 0 0 0 
21 7 2 20.5 2.5 11 0 0 0 