LAMMPS (3 Mar 2020)


# ----------------- Init Section -----------------

include "system.in.init"
            units           real
            atom_style      full
            boundary        p p p
            bond_style      harmonic
            angle_style     harmonic
            pair_style      lj/cut/coul/long 12.0 13.0
            pair_modify     mix arithmetic
            dihedral_style  harmonic
            kspace_style    pppm 1.0e-5
            kspace_modify   gewald 0.29


# ----------------- Atom Definition Section -----------------

read_data "system.data"
  orthogonal box = (-1 -1 -1) to (31 31 101)
  1 by 1 by 4 MPI processor grid
  reading atoms ...
<<<<<<< HEAD
  3599 atoms
=======
  4047 atoms
>>>>>>> 470a4b6fcba75a8582aa87016a1e1942d472a80a
  scanning bonds ...
  1 = max bonds/atom
  scanning angles ...
  1 = max angles/atom
  reading bonds ...
  1802 bonds
  reading angles ...
  901 angles
  2 = max # of 1-2 neighbors
  1 = max # of 1-3 neighbors
  1 = max # of 1-4 neighbors
  2 = max # of special neighbors
<<<<<<< HEAD
  special bonds CPU = 0.0006095 secs
  read_data CPU = 0.0282932 secs
=======
  special bonds CPU = 0.000843 secs
  read_data CPU = 0.0383129 secs
>>>>>>> 470a4b6fcba75a8582aa87016a1e1942d472a80a

# ----------------- Settings Section -----------------

include "system.in.settings"

        #     atom_id mass
        mass 1  1.0080
        mass 2 15.9994

        #           atom_i       atom_j       epsilon   sigma
        pair_coeff 1      1      0.000      0.000
        pair_coeff 2      2      0.1553     3.5533
        pair_coeff 1      2      0.000      0.000

        #           bond_id     k_harmonic      r0
        bond_coeff 1    1000.0           1.0

        #            angle_id    k_harmonic     theta0
        angle_coeff 1  1000.0          109.47

        group gSPCE type 1 2
2703 atoms in group gSPCE
        group hyd type 1
1802 atoms in group hyd
        group oxy type 2
901 atoms in group oxy

        fix fShakeSPCE gSPCE shake 0.0001 10 100 b 1 a 1
  0 = # of size 2 clusters
  0 = # of size 3 clusters
  0 = # of size 4 clusters
  901 = # of frozen angles
<<<<<<< HEAD
  find clusters CPU = 0.0002991 secs
=======
  find clusters CPU = 0.0003513 secs
>>>>>>> 470a4b6fcba75a8582aa87016a1e1942d472a80a

        #     atom_id mass
        mass  3  12.0107

        # These Lennard-Jones parameters come from
        #  R. Saito, R. Matsuo, T. Kimura, G. Dresselhaus, M.S. Dresselhaus,
        #  Chem Phys Lett, 348:187 (2001)
        pair_coeff  3      3     0.068443   3.407

        # --- We must eventually specify the interactions between the atoms ---
        # --- in different molecule types (graphene-water interactions).    ---
        # (See Laurent Joly, J. Chem. Phys. 135(21):214705 (2011) for details
pair_coeff 2 3 0.114 3.28
pair_coeff 1 3 0.0 3.28


        # Define a group consisting of only carbon atoms in graphene molecules
        group gGraphene type 3
<<<<<<< HEAD
896 atoms in group gGraphene
=======
1344 atoms in group gGraphene
>>>>>>> 470a4b6fcba75a8582aa87016a1e1942d472a80a

        # Only the gGraphene atoms are immobile.
        group mobile subtract all gGraphene
2703 atoms in group mobile

        # Use "neigh_modify" to turn off calculation of interactions between immobilized
        # atoms. (Note: group "gGraphene" was defined in the file "system.insettings")
        neigh_modify exclude group gGraphene gGraphene



# ----------------- Output Section -----------------

include "system.in.output"
     thermo 100
     dump 1 all custom 100 dump.lammpstrj id mol type x y z ix iy iz


# ----------------- Run Section -----------------

include "system.in.run"

# 速度の割り当て
<<<<<<< HEAD
velocity   all create 298.0 4928459
run 0
PPPM initialization ...
  using 12-bit tables for long-range coulomb (src/kspace.cpp:332)
WARNING: For better accuracy use 'pair_modify table 0' (src/kspace.cpp:353)
  G vector (1/distance) = 0.29
  grid = 25 25 60
  stencil order = 5
  estimated absolute RMS force accuracy = 0.00244257
  estimated relative force accuracy = 7.35573e-06
  using double precision FFTW3
  3d grid and FFT values/proc = 22528 9375
WARNING: Neighbor exclusions used with KSpace solver may give inconsistent Coulombic energies (src/neighbor.cpp:486)
Neighbor list info ...
  update every 1 steps, delay 10 steps, check yes
  max neighbors/atom: 2000, page size: 100000
  master list distance cutoff = 15
  ghost atom cutoff = 15
  binsize = 7.5, bins = 5 5 14
  1 neighbor lists, perpetual/occasional/extra = 1 0 0
  (1) pair lj/cut/coul/long, perpetual
      attributes: half, newton on
      pair build: half/bin/newton
      stencil: half/bin/3d/newton
      bin: standard
SHAKE stats (type/ave/delta) on step 0
  1 0.999974 2.48545e-06
  1 109.476 0.000203194
Per MPI rank memory allocation (min/avg/max) = 9.941 | 12.59 | 15.34 Mbytes
Step Temp E_pair E_mol TotEng Press 
       0          298    49474.111            0    51869.806    143405.35 
Loop time of 2.5e-06 on 4 procs for 0 steps with 3599 atoms

120.0% CPU use with 4 MPI tasks x no OpenMP threads

MPI task timing breakdown:
Section |  min time  |  avg time  |  max time  |%varavg| %total
---------------------------------------------------------------
Pair    | 0          | 0          | 0          |   0.0 |  0.00
Bond    | 0          | 0          | 0          |   0.0 |  0.00
Kspace  | 0          | 0          | 0          |   0.0 |  0.00
Neigh   | 0          | 0          | 0          |   0.0 |  0.00
Comm    | 0          | 0          | 0          |   0.0 |  0.00
Output  | 0          | 0          | 0          |   0.0 |  0.00
Modify  | 0          | 0          | 0          |   0.0 |  0.00
Other   |            | 2.5e-06    |            |       |100.00

Nlocal:    899.75 ave 1805 max 0 min
Histogram: 1 0 1 0 0 0 0 1 0 1
Nghost:    6526.5 ave 11555 max 1389 min
Histogram: 1 0 1 0 0 0 0 1 0 1
Neighs:    364158 ave 888987 max 0 min
Histogram: 2 0 0 0 0 0 1 0 0 1

Total # of neighbors = 1456630
Ave neighs/atom = 404.732
Ave special neighs/atom = 1.50208
Neighbor list builds = 0
Dangerous builds = 0
velocity   all scale 298.0

timestep 1.0  # fs
=======
velocity         all create 298.0 4928459

timestep 1.0

thermo_style custom step temp pe etotal press vol atoms
>>>>>>> 470a4b6fcba75a8582aa87016a1e1942d472a80a

neigh_modify every 1 delay 0 check yes

#　制御に用いる変数(QA)
variable          step equal step #ステップ数
variable          density equal density #密度
variable          temp equal temp　#温度
variable          etotal equal etotal #総エネルギー
variable          pxx equal pxx #圧力
variable          pyy equal pyy
variable          pzz equal pzz
variable          lx equal lx　#boxの大きさ
variable          ly equal ly
variable          lz equal lz
variable          zlo equal zlo　#boxの境界
variable          zhi equal zhi
variable          xlo equal xlo
variable          xhi equal xhi
variable          ylo equal ylo
variable          yhi equal yhi
variable          pe equal pe　#ポテンシャルエネルギー

<<<<<<< HEAD
# region作成
#region top plane 0 0 100 0 0 -1 units box
#region top plane 0 0 100 0 0 -1 units lattice
#fix wall all wall/region top lj93 0.0 0.0 1.0
# Solvent(water) evapolation region setting (top 10% box region)
region evapRegion block -1 31 -1 31 89.5 99.5

# Solvent evapolation (30 atoms = 10 water molecules per 1000 steps)
#fix evp mobile evaporate 1000 30 evapRegion 49892  molecule yes

# temp of mobile
compute myTemp mobile temp
compute_modify myTemp dynamic/dof yes
thermo_style custom step temp c_myTemp pe etotal press vol atoms

# -- run protocols ---

#fix 1 mobile npt temp 298.0 298.0 100.0 iso 1.0 1.0 1000.0
# run 1000000  # 1ns
#unfix 1

#--- nvt initialization 298K/50ps
fix 1 mobile nvt temp 298.0 298.0 100.0
 run 50000  # 50ps
=======
#change_box all boundary p p f

# 削除平面作成
# ? 範囲指定
#region top plane 0 0 100 0 0 -1 units box
#region top plane 0 0 100 0 0 -1 units lattice
#fix wall all wall/region top lj93 0.0 0.0 1.0

# Solvent(water) evapolation region setting (top 10% box region)
region top block -1 31 -1 31 90 101

# Solvent evapolation (30 atoms = 10 water molecules per 1000 steps)
fix evp mobile evaporate 1000 30 top 49892  molecule yes
compute myTemp mobile temp
compute_modify myTemp dynamic/dof yes

#　? 削除
#delete_atoms region top compress yes

# -- run protocols ---

fix 1 mobile npt temp 298.0 298.0 100.0 iso 1.0 1.0 1000.0
 run 10000
>>>>>>> 470a4b6fcba75a8582aa87016a1e1942d472a80a
PPPM initialization ...
  using 12-bit tables for long-range coulomb (src/kspace.cpp:332)
WARNING: For better accuracy use 'pair_modify table 0' (src/kspace.cpp:353)
  G vector (1/distance) = 0.29
  grid = 25 25 60
  stencil order = 5
<<<<<<< HEAD
  estimated absolute RMS force accuracy = 0.00244257
  estimated relative force accuracy = 7.35573e-06
  using double precision FFTW3
  3d grid and FFT values/proc = 22528 9375
WARNING: Neighbor exclusions used with KSpace solver may give inconsistent Coulombic energies (src/neighbor.cpp:486)
SHAKE stats (type/ave/delta) on step 0
  1 1 1.31662e-10
  1 109.47 1.98399e-08
Per MPI rank memory allocation (min/avg/max) = 9.941 | 12.59 | 15.34 Mbytes
Step Temp c_myTemp PotEng TotEng Press Volume Atoms 
       0          298    333.58169    49475.304    51870.999    143408.78       104448     3599 
SHAKE stats (type/ave/delta) on step 100
  1 0.999986 0.00017129
  1 109.471 0.0207935
     100    1722.9073    2467.3823    70.488859    13921.362    16264.286       104448     3599 
SHAKE stats (type/ave/delta) on step 200
  1 0.999995 4.25868e-05
  1 109.47 0.0043071
     200    710.66747     951.5518   -2989.0415    2724.1882    5641.5587       104448     3599 
SHAKE stats (type/ave/delta) on step 300
  1 0.999998 1.65285e-05
  1 109.47 0.00200883
     300    407.32659    497.29841   -4127.1049   -852.50677    2068.5639       104448     3599 
SHAKE stats (type/ave/delta) on step 400
  1 0.999999 9.88937e-06
  1 109.47 0.000959022
     400    293.16739    326.34484   -4644.2534    -2287.409    632.94216       104448     3599 
SHAKE stats (type/ave/delta) on step 500
  1 1 4.99346e-06
  1 109.47 0.000328135
     500    258.32019    274.16111   -4986.8092     -2910.11    58.426747       104448     3599 
SHAKE stats (type/ave/delta) on step 600
  1 1 7.38762e-07
  1 109.47 8.56081e-05
     600    250.46342    262.39559   -5126.0472   -3112.5105    34.867956       104448     3599 
SHAKE stats (type/ave/delta) on step 700
  1 1 2.24025e-06
  1 109.47 0.000219948
     700    262.37454    280.23252   -5121.2563   -3011.9631     219.5297       104448     3599 
SHAKE stats (type/ave/delta) on step 800
  1 1 2.22701e-06
  1 109.47 0.000271599
     800    281.49588    308.86674   -5038.8896   -2775.8754    305.04467       104448     3599 
SHAKE stats (type/ave/delta) on step 900
  1 1 6.33864e-07
  1 109.47 6.73594e-05
     900    293.59653    326.98748   -5017.3768   -2657.0825    304.02836       104448     3599 
SHAKE stats (type/ave/delta) on step 1000
  1 1 2.07665e-06
  1 109.47 0.000241641
    1000    279.76806    306.27933   -5024.6129    -2775.489    221.95911       104448     3599 
SHAKE stats (type/ave/delta) on step 1100
  1 1 1.18799e-06
  1 109.47 0.000105351
    1100    268.06417    288.75274    -5082.387   -2927.3536    123.27176       104448     3599 
SHAKE stats (type/ave/delta) on step 1200
  1 1 1.03379e-06
  1 109.47 0.000116411
    1200     263.2148     281.4908   -5058.9033   -2942.8552    147.60503       104448     3599 
SHAKE stats (type/ave/delta) on step 1300
  1 1 2.79149e-06
  1 109.47 0.000217235
    1300    265.10604    284.32294   -4942.9466   -2811.6942    237.94169       104448     3599 
SHAKE stats (type/ave/delta) on step 1400
  1 1 1.89008e-06
  1 109.47 0.00021815
    1400     283.9389    312.52517   -4892.2347   -2609.5804    236.97179       104448     3599 
SHAKE stats (type/ave/delta) on step 1500
  1 1 9.41778e-07
  1 109.47 9.4154e-05
    1500    285.61271    315.03171    -4855.218   -2559.1076    339.03088       104448     3599 
SHAKE stats (type/ave/delta) on step 1600
  1 1 2.42921e-06
  1 109.47 0.000138368
    1600    275.61225      300.056   -4890.0038   -2674.2895    193.41731       104448     3599 
SHAKE stats (type/ave/delta) on step 1700
  1 1 7.15741e-07
  1 109.47 6.97093e-05
    1700    261.56826    279.02511   -4872.0807   -2769.2694    73.994787       104448     3599 
SHAKE stats (type/ave/delta) on step 1800
  1 1 1.65174e-06
  1 109.47 0.000124917
    1800      273.955    297.57427   -4907.5537   -2705.1624    181.59449       104448     3599 
SHAKE stats (type/ave/delta) on step 1900
  1 1 1.41467e-06
  1 109.47 0.000114486
    1900    283.64664    312.08751   -4881.0296   -2600.7248     93.49196       104448     3599 
SHAKE stats (type/ave/delta) on step 2000
  1 1 5.87706e-07
  1 109.47 7.32494e-05
    2000    277.91903     303.5104   -4797.0554   -2562.7963    198.32153       104448     3599 
SHAKE stats (type/ave/delta) on step 2100
  1 1 5.48132e-07
  1 109.47 6.49145e-05
    2100    273.36457    296.69009   -4777.0471   -2579.4025    200.93811       104448     3599 
SHAKE stats (type/ave/delta) on step 2200
  1 1 6.86957e-07
  1 109.47 9.08212e-05
    2200    271.14148    293.36101   -4753.7736    -2574.001    236.09637       104448     3599 
SHAKE stats (type/ave/delta) on step 2300
  1 1 6.62092e-07
  1 109.47 9.6363e-05
    2300    274.43426    298.29197   -4745.9923   -2539.7481    113.40627       104448     3599 
SHAKE stats (type/ave/delta) on step 2400
  1 1 8.32521e-07
  1 109.47 8.33077e-05
    2400    275.53908    299.94643   -4738.8631    -2523.737    258.28555       104448     3599 
SHAKE stats (type/ave/delta) on step 2500
  1 1 6.39821e-07
  1 109.47 7.52244e-05
    2500    272.52725    295.43621   -4710.3501   -2519.4369    185.38189       104448     3599 
SHAKE stats (type/ave/delta) on step 2600
  1 1 5.89106e-07
  1 109.47 8.03685e-05
    2600    278.59963    304.52961   -4748.4816    -2508.751    135.31345       104448     3599 
SHAKE stats (type/ave/delta) on step 2700
  1 1 6.8473e-07
  1 109.47 8.44828e-05
    2700     274.1641    297.88739   -4735.8564   -2531.7842     219.1845       104448     3599 
SHAKE stats (type/ave/delta) on step 2800
  1 1 5.02334e-07
  1 109.47 5.09627e-05
    2800    275.00396    299.14509   -4752.3106   -2541.4865    47.590959       104448     3599 
SHAKE stats (type/ave/delta) on step 2900
  1 1 8.18181e-07
  1 109.47 8.64292e-05
    2900    273.15171    296.37134   -4709.8732   -2513.9398    66.217327       104448     3599 
SHAKE stats (type/ave/delta) on step 3000
  1 1 7.67554e-07
  1 109.47 0.000112763
    3000    276.20722    300.94698   -4683.0332   -2462.5357    149.05548       104448     3599 
SHAKE stats (type/ave/delta) on step 3100
  1 1 5.9971e-07
  1 109.47 6.79312e-05
    3100    279.13802    305.33584   -4685.0261   -2440.9673    194.07064       104448     3599 
SHAKE stats (type/ave/delta) on step 3200
  1 1 1.1527e-06
  1 109.47 0.000100564
    3200    273.59684    297.03793   -4689.5099    -2489.998    127.05125       104448     3599 
SHAKE stats (type/ave/delta) on step 3300
  1 1 8.87826e-07
  1 109.47 8.24159e-05
    3300    268.02279    288.69078    -4705.657   -2550.9562    99.863468       104448     3599 
SHAKE stats (type/ave/delta) on step 3400
  1 1 9.01895e-07
  1 109.47 0.00011189
    3400    273.32007    296.62345   -4719.3377   -2522.0508   -85.731501       104448     3599 
SHAKE stats (type/ave/delta) on step 3500
  1 1 1.35793e-06
  1 109.47 0.000125727
    3500    276.77634    301.79923   -4646.8484   -2421.7757    130.22204       104448     3599 
SHAKE stats (type/ave/delta) on step 3600
  1 1 5.17151e-07
  1 109.47 7.49373e-05
    3600    275.90249    300.49063   -4582.4714   -2364.4238    150.48815       104448     3599 
SHAKE stats (type/ave/delta) on step 3700
  1 1 5.21791e-07
  1 109.47 7.22712e-05
    3700    275.25363    299.51897   -4587.0482   -2374.2169    4.6026033       104448     3599 
SHAKE stats (type/ave/delta) on step 3800
  1 1 6.61718e-07
  1 109.47 7.17473e-05
    3800    278.51134     304.3974   -4628.2801   -2389.2592    22.186945       104448     3599 
SHAKE stats (type/ave/delta) on step 3900
  1 1 7.16792e-07
  1 109.47 7.86648e-05
    3900    268.71976    289.73449   -4588.2438   -2427.9399    111.64663       104448     3599 
SHAKE stats (type/ave/delta) on step 4000
  1 1 7.02964e-07
  1 109.47 7.27432e-05
    4000    273.64507    297.11015   -4635.0148   -2435.1151     41.51625       104448     3599 
SHAKE stats (type/ave/delta) on step 4100
  1 1 5.35481e-07
  1 109.47 5.1836e-05
    4100     277.7195    303.21162   -4656.0084   -2423.3534    39.802238       104448     3599 
SHAKE stats (type/ave/delta) on step 4200
  1 1 5.30895e-07
  1 109.47 5.73595e-05
    4200    271.57014    294.00293   -4621.6244   -2438.4056    89.000533       104448     3599 
SHAKE stats (type/ave/delta) on step 4300
  1 1 6.78337e-07
  1 109.47 7.77222e-05
    4300    273.93731    297.54778   -4637.7017   -2435.4527    88.383793       104448     3599 
SHAKE stats (type/ave/delta) on step 4400
  1 1 5.90284e-07
  1 109.47 6.8281e-05
    4400    273.34009    296.65344   -4618.5083   -2421.0604   -14.674575       104448     3599 
SHAKE stats (type/ave/delta) on step 4500
  1 1 5.28931e-07
  1 109.47 7.13989e-05
    4500    270.12731     291.8423   -4583.8155   -2412.1959    118.36097       104448     3599 
SHAKE stats (type/ave/delta) on step 4600
  1 1 8.94118e-07
  1 109.47 0.000101166
    4600    274.08602    297.77046   -4588.5389   -2385.0943    134.30903       104448     3599 
SHAKE stats (type/ave/delta) on step 4700
  1 1 6.11949e-07
  1 109.47 6.93614e-05
    4700    278.19866    303.92916   -4602.8505   -2366.3433     125.0709       104448     3599 
SHAKE stats (type/ave/delta) on step 4800
  1 1 1.11031e-06
  1 109.47 7.246e-05
    4800    275.34519    299.65608   -4609.4108   -2395.8434    17.573546       104448     3599 
SHAKE stats (type/ave/delta) on step 4900
  1 1 6.07173e-07
  1 109.47 6.45788e-05
    4900     274.3901    298.22584   -4644.0132    -2438.124   -36.247334       104448     3599 
SHAKE stats (type/ave/delta) on step 5000
  1 1 6.99646e-07
  1 109.47 7.66567e-05
    5000    271.36988    293.70305   -4610.7477   -2429.1388    96.206326       104448     3599 
SHAKE stats (type/ave/delta) on step 5100
  1 1 8.80423e-07
  1 109.47 9.6781e-05
    5100    276.21271    300.95519   -4605.9266    -2385.385    65.205766       104448     3599 
SHAKE stats (type/ave/delta) on step 5200
  1 1 7.61398e-07
  1 109.47 7.31708e-05
    5200     274.6638     298.6357   -4553.0177   -2344.9282    127.40365       104448     3599 
SHAKE stats (type/ave/delta) on step 5300
  1 1 5.70928e-07
  1 109.47 6.3085e-05
    5300    272.41297    295.26508    -4518.522   -2328.5274   -6.8390284       104448     3599 
SHAKE stats (type/ave/delta) on step 5400
  1 1 5.41767e-07
  1 109.47 6.3709e-05
    5400    275.38436    299.71473   -4546.3991   -2332.5168    41.923517       104448     3599 
SHAKE stats (type/ave/delta) on step 5500
  1 1 6.04565e-07
  1 109.47 8.73685e-05
    5500    276.71979    301.71454   -4562.8314   -2338.2133    3.5579184       104448     3599 
SHAKE stats (type/ave/delta) on step 5600
  1 1 6.14526e-07
  1 109.47 7.13384e-05
    5600    276.05738    300.72258   -4569.3356   -2350.0428    87.160279       104448     3599 
SHAKE stats (type/ave/delta) on step 5700
  1 1 5.13776e-07
  1 109.47 6.51941e-05
    5700    276.00544    300.64481   -4566.5974   -2347.7221    21.742981       104448     3599 
SHAKE stats (type/ave/delta) on step 5800
  1 1 6.66851e-07
  1 109.47 8.02747e-05
    5800    272.64118    295.60682   -4518.2986   -2326.4694    52.844411       104448     3599 
SHAKE stats (type/ave/delta) on step 5900
  1 1 7.40565e-07
  1 109.47 8.16922e-05
    5900    275.99188     300.6245   -4507.9475   -2289.1813    33.705242       104448     3599 
SHAKE stats (type/ave/delta) on step 6000
  1 1 9.15539e-07
  1 109.47 7.58508e-05
    6000     275.3568    299.67347   -4502.6971   -2289.0364    112.49477       104448     3599 
SHAKE stats (type/ave/delta) on step 6100
  1 1 9.03779e-07
  1 109.47 0.000108403
    6100    273.19832    296.44114   -4519.2018   -2322.8936    82.954041       104448     3599 
SHAKE stats (type/ave/delta) on step 6200
  1 1 7.28342e-07
  1 109.47 7.79986e-05
    6200    276.41259     301.2545   -4558.2728   -2336.1244    151.28597       104448     3599 
SHAKE stats (type/ave/delta) on step 6300
  1 1 7.29042e-07
  1 109.47 8.10537e-05
    6300    273.12657    296.33369    -4546.391   -2350.6597    187.70516       104448     3599 
SHAKE stats (type/ave/delta) on step 6400
  1 1 8.37462e-07
  1 109.47 0.000100348
    6400    272.95157    296.07163   -4533.8901   -2339.5656    142.21715       104448     3599 
SHAKE stats (type/ave/delta) on step 6500
  1 1 7.42073e-07
  1 109.47 6.95067e-05
    6500    273.64206    297.10564   -4505.4916   -2305.6161    157.27209       104448     3599 
SHAKE stats (type/ave/delta) on step 6600
  1 1 5.34022e-07
  1 109.47 6.92311e-05
    6600    274.19256    297.93001   -4497.0425   -2292.7414    99.799287       104448     3599 
SHAKE stats (type/ave/delta) on step 6700
  1 1 7.01646e-07
  1 109.47 7.0093e-05
    6700    277.50901     302.8964   -4517.1516   -2286.1887     191.6846       104448     3599 
SHAKE stats (type/ave/delta) on step 6800
  1 1 7.09829e-07
  1 109.47 6.73491e-05
    6800    278.30115    304.08264   -4528.7234   -2291.3923    95.552029       104448     3599 
SHAKE stats (type/ave/delta) on step 6900
  1 1 6.12745e-07
  1 109.47 8.06401e-05
    6900     273.5916    297.03007   -4504.8337   -2305.3639    107.10153       104448     3599 
SHAKE stats (type/ave/delta) on step 7000
  1 1 5.50282e-07
  1 109.47 7.92275e-05
    7000    274.14721    297.86211   -4513.9343   -2309.9977    21.258149       104448     3599 
SHAKE stats (type/ave/delta) on step 7100
  1 1 5.63286e-07
  1 109.47 6.2706e-05
    7100    273.25034    296.51903   -4504.5045   -2307.7782   -27.126468       104448     3599 
SHAKE stats (type/ave/delta) on step 7200
  1 1 8.19238e-07
  1 109.47 9.87287e-05
    7200    273.17111    296.40039   -4479.7422   -2283.6528    33.016572       104448     3599 
SHAKE stats (type/ave/delta) on step 7300
  1 1 8.95861e-07
  1 109.47 7.88562e-05
    7300    274.85676    298.92466     -4450.74   -2241.0992    40.134447       104448     3599 
SHAKE stats (type/ave/delta) on step 7400
  1 1 6.02099e-07
  1 109.47 6.68817e-05
    7400    275.89718    300.48269    -4432.343    -2214.338    13.474918       104448     3599 
SHAKE stats (type/ave/delta) on step 7500
  1 1 7.30294e-07
  1 109.47 6.36007e-05
    7500    280.20873    306.93924   -4472.3153   -2219.6487   -2.9403279       104448     3599 
SHAKE stats (type/ave/delta) on step 7600
  1 1 6.20963e-07
  1 109.47 6.52373e-05
    7600    267.33532    287.66129    -4422.454     -2273.28   -9.3726348       104448     3599 
SHAKE stats (type/ave/delta) on step 7700
  1 1 7.23002e-07
  1 109.47 8.15629e-05
    7700    268.10926    288.82027   -4431.3581   -2275.9622    107.27542       104448     3599 
SHAKE stats (type/ave/delta) on step 7800
  1 1 5.6822e-07
  1 109.47 6.83279e-05
    7800    275.83905    300.39563   -4460.3342   -2242.7966    89.084158       104448     3599 
SHAKE stats (type/ave/delta) on step 7900
  1 1 8.2227e-07
  1 109.47 7.51396e-05
    7900    275.25606    299.52261   -4460.6413   -2247.7905    93.787255       104448     3599 
SHAKE stats (type/ave/delta) on step 8000
  1 1 5.71899e-07
  1 109.47 6.80149e-05
    8000    270.83478    292.90173   -4440.5765   -2263.2695    131.83518       104448     3599 
SHAKE stats (type/ave/delta) on step 8100
  1 1 6.47166e-07
  1 109.47 7.85532e-05
    8100     274.7045    298.69665   -4466.4396   -2258.0229   -14.302077       104448     3599 
SHAKE stats (type/ave/delta) on step 8200
  1 1 6.07962e-07
  1 109.47 6.58655e-05
    8200    274.30579    298.09957   -4462.1866   -2256.9753    53.486664       104448     3599 
SHAKE stats (type/ave/delta) on step 8300
  1 1 6.42761e-07
  1 109.47 8.12454e-05
    8300    273.49102    296.87946   -4444.4785   -2245.8172    96.863379       104448     3599 
SHAKE stats (type/ave/delta) on step 8400
  1 1 5.70511e-07
  1 109.47 7.34761e-05
    8400    278.38602    304.20972   -4450.8642   -2212.8509   -13.697229       104448     3599 
SHAKE stats (type/ave/delta) on step 8500
  1 1 6.28389e-07
  1 109.47 6.2606e-05
    8500    273.61228    297.06104   -4404.6157   -2204.9797    59.611403       104448     3599 
SHAKE stats (type/ave/delta) on step 8600
  1 1 7.06113e-07
  1 109.47 8.22175e-05
    8600    278.85471    304.91158    -4459.114   -2217.3328     102.9372       104448     3599 
SHAKE stats (type/ave/delta) on step 8700
  1 1 7.83914e-07
  1 109.47 0.000102297
    8700    276.98479    302.11139   -4486.0415   -2259.2929    100.40484       104448     3599 
SHAKE stats (type/ave/delta) on step 8800
  1 1 5.85442e-07
  1 109.47 6.64585e-05
    8800    273.55383    296.97351   -4488.7969   -2289.6308    20.889697       104448     3599 
SHAKE stats (type/ave/delta) on step 8900
  1 1 7.51295e-07
  1 109.47 7.40349e-05
    8900    270.75553    292.78306   -4463.3322   -2286.6622   -13.336703       104448     3599 
SHAKE stats (type/ave/delta) on step 9000
  1 1 6.5734e-07
  1 109.47 9.74036e-05
    9000     274.5992    298.53896   -4463.7745   -2256.2044    87.263707       104448     3599 
SHAKE stats (type/ave/delta) on step 9100
  1 1 8.00092e-07
  1 109.47 6.99465e-05
    9100    272.43254    295.29438    -4448.654   -2258.5021    53.335415       104448     3599 
SHAKE stats (type/ave/delta) on step 9200
  1 1 7.35584e-07
  1 109.47 6.93379e-05
    9200    271.95682      294.582   -4471.7927   -2285.4652    31.254217       104448     3599 
SHAKE stats (type/ave/delta) on step 9300
  1 1 6.11692e-07
  1 109.47 6.67979e-05
    9300    271.28846    293.58112    -4478.011   -2297.0567    124.57215       104448     3599 
SHAKE stats (type/ave/delta) on step 9400
  1 1 7.64655e-07
  1 109.47 7.78614e-05
    9400     276.1324    300.83493   -4502.7438   -2282.8478    170.01762       104448     3599 
SHAKE stats (type/ave/delta) on step 9500
  1 1 7.02183e-07
  1 109.47 5.78604e-05
    9500    274.28935    298.07495   -4476.3527   -2271.2735    45.469326       104448     3599 
SHAKE stats (type/ave/delta) on step 9600
  1 1 7.27334e-07
  1 109.47 8.34494e-05
    9600    272.18224    294.91956    -4479.062   -2290.9224    100.80594       104448     3599 
SHAKE stats (type/ave/delta) on step 9700
  1 1 5.67277e-07
  1 109.47 8.37623e-05
    9700    273.19832    296.44114   -4504.5788   -2308.2706    52.967625       104448     3599 
SHAKE stats (type/ave/delta) on step 9800
  1 1 6.89376e-07
  1 109.47 6.83134e-05
    9800    273.89821    297.48922   -4501.0098   -2299.0751    54.754401       104448     3599 
SHAKE stats (type/ave/delta) on step 9900
  1 1 6.90309e-07
  1 109.47 7.56866e-05
    9900    272.69369    295.68546   -4474.3375   -2282.0862    22.512631       104448     3599 
SHAKE stats (type/ave/delta) on step 10000
  1 1 7.87889e-07
  1 109.47 9.59712e-05
   10000    277.34318    302.64807    -4478.656   -2249.0263    107.65783       104448     3599 
SHAKE stats (type/ave/delta) on step 10100
  1 1 4.39254e-07
  1 109.47 5.9858e-05
   10100    277.03653    302.18886   -4457.2871   -2230.1226    41.628773       104448     3599 
SHAKE stats (type/ave/delta) on step 10200
  1 1 7.99638e-07
  1 109.47 6.19242e-05
   10200    276.09705    300.78199   -4465.9501   -2246.3383     45.91416       104448     3599 
SHAKE stats (type/ave/delta) on step 10300
  1 1 8.65671e-07
  1 109.47 7.13335e-05
   10300    276.93344    302.03448   -4509.9259   -2283.5902     93.25835       104448     3599 
SHAKE stats (type/ave/delta) on step 10400
  1 1 9.75127e-07
  1 109.47 9.53655e-05
   10400    271.01644    293.17377   -4515.9508   -2337.1833    79.536282       104448     3599 
SHAKE stats (type/ave/delta) on step 10500
  1 1 7.23461e-07
  1 109.47 7.70462e-05
   10500    269.55538    290.98583   -4535.4503   -2368.4287    147.08687       104448     3599 
SHAKE stats (type/ave/delta) on step 10600
  1 1 7.41634e-07
  1 109.47 9.93151e-05
   10600    272.29315    295.08565   -4537.8001   -2348.7688    165.33039       104448     3599 
SHAKE stats (type/ave/delta) on step 10700
  1 1 8.5214e-07
  1 109.47 0.0001025
   10700    277.32563    302.62178   -4540.1713   -2310.6828    168.53225       104448     3599 
SHAKE stats (type/ave/delta) on step 10800
  1 1 5.72329e-07
  1 109.47 7.39625e-05
   10800    275.65148    300.11474   -4520.7326   -2304.7029    141.40885       104448     3599 
SHAKE stats (type/ave/delta) on step 10900
  1 1 7.89507e-07
  1 109.47 7.48668e-05
   10900    275.44819    299.81031   -4553.3653   -2338.9699    85.176332       104448     3599 
SHAKE stats (type/ave/delta) on step 11000
  1 1 7.64671e-07
  1 109.47 6.31076e-05
   11000    275.60842    300.05026   -4584.6496   -2368.9661    0.3222452       104448     3599 
SHAKE stats (type/ave/delta) on step 11100
  1 1 5.46593e-07
  1 109.47 5.66453e-05
   11100    271.22775     293.4902   -4565.5537   -2385.0875    94.514713       104448     3599 
SHAKE stats (type/ave/delta) on step 11200
  1 1 7.11435e-07
  1 109.47 9.19879e-05
   11200    273.22271    296.47766   -4564.1581   -2367.6538    125.75954       104448     3599 
SHAKE stats (type/ave/delta) on step 11300
  1 1 6.67515e-07
  1 109.47 7.42824e-05
   11300    279.54426    305.94419   -4584.9831   -2337.6584    106.03187       104448     3599 
SHAKE stats (type/ave/delta) on step 11400
  1 1 7.03862e-07
  1 109.47 6.28229e-05
   11400    273.29262    296.58235   -4545.9559   -2348.8897    288.19158       104448     3599 
SHAKE stats (type/ave/delta) on step 11500
  1 1 9.33997e-07
  1 109.47 7.99638e-05
   11500    268.94351    290.06955   -4562.1833   -2400.0807    180.23109       104448     3599 
SHAKE stats (type/ave/delta) on step 11600
  1 1 5.34982e-07
  1 109.47 6.24814e-05
   11600    272.98763    296.12563   -4605.6612   -2411.0468    60.451519       104448     3599 
SHAKE stats (type/ave/delta) on step 11700
  1 1 1.53306e-06
  1 109.47 0.000128439
   11700    268.14147    288.86849    -4520.824   -2365.1692    131.40421       104448     3599 
SHAKE stats (type/ave/delta) on step 11800
  1 1 1.44346e-06
  1 109.47 0.00014506
   11800    278.70288    304.68423   -4506.9824   -2266.4218    114.17044       104448     3599 
SHAKE stats (type/ave/delta) on step 11900
  1 1 7.09566e-07
  1 109.47 7.96282e-05
   11900    282.41855    310.24844   -4472.9268   -2202.4949    194.90986       104448     3599 
SHAKE stats (type/ave/delta) on step 12000
  1 1 9.54712e-07
  1 109.47 9.28683e-05
   12000    279.16101    305.37027   -4484.3423   -2240.0986    22.435794       104448     3599 
SHAKE stats (type/ave/delta) on step 12100
  1 1 9.83652e-07
  1 109.47 9.73291e-05
   12100    273.65081    297.11874   -4521.6639   -2321.7181    51.466979       104448     3599 
SHAKE stats (type/ave/delta) on step 12200
  1 1 5.88579e-07
  1 109.47 7.57521e-05
   12200    267.41134    287.77513   -4492.4763    -2342.691    1.9143219       104448     3599 
SHAKE stats (type/ave/delta) on step 12300
  1 1 1.02881e-06
  1 109.47 0.000123455
   12300    277.21376    302.45427   -4524.0117   -2295.4224    151.34768       104448     3599 
SHAKE stats (type/ave/delta) on step 12400
  1 1 8.19359e-07
  1 109.47 7.29648e-05
   12400    280.82913    307.86828   -4535.3563   -2277.7023    193.64212       104448     3599 
SHAKE stats (type/ave/delta) on step 12500
  1 1 1.37683e-06
  1 109.47 0.00011868
   12500    278.41225    304.24901   -4565.4059   -2327.1817    197.01911       104448     3599 
SHAKE stats (type/ave/delta) on step 12600
  1 1 1.25423e-06
  1 109.47 0.000101141
   12600    268.38633    289.23518   -4582.1321   -2424.5086    195.65874       104448     3599 
SHAKE stats (type/ave/delta) on step 12700
  1 1 6.22377e-07
  1 109.47 6.23306e-05
   12700    265.67823     285.1798   -4596.6901   -2460.8377    59.760232       104448     3599 
SHAKE stats (type/ave/delta) on step 12800
  1 1 2.09502e-06
  1 109.47 0.000207191
   12800    267.54023    287.96813   -4555.3063    -2404.485    135.41542       104448     3599 
SHAKE stats (type/ave/delta) on step 12900
  1 1 1.22956e-06
  1 109.47 0.000100893
   12900    278.53464    304.43228   -4538.2212   -2299.0131    209.85898       104448     3599 
SHAKE stats (type/ave/delta) on step 13000
  1 1 7.08342e-07
  1 109.47 8.27711e-05
   13000    279.48825    305.86032    -4527.436   -2280.5616    267.49197       104448     3599 
SHAKE stats (type/ave/delta) on step 13100
  1 1 1.36898e-06
  1 109.47 9.19508e-05
   13100    275.09022    299.27426   -4558.4566    -2346.939     173.2193       104448     3599 
SHAKE stats (type/ave/delta) on step 13200
  1 1 9.67196e-07
  1 109.47 8.58721e-05
   13200    272.17261    294.90514   -4609.2294   -2421.1672    73.004608       104448     3599 
SHAKE stats (type/ave/delta) on step 13300
  1 1 6.62413e-07
  1 109.47 8.78502e-05
   13300     268.0671    288.75713   -4585.6977   -2430.6407    175.92476       104448     3599 
SHAKE stats (type/ave/delta) on step 13400
  1 1 1.2454e-06
  1 109.47 0.000131292
   13400     275.2989    299.58676   -4579.0026   -2365.8074    144.37232       104448     3599 
SHAKE stats (type/ave/delta) on step 13500
  1 1 7.08508e-07
  1 109.47 6.52299e-05
   13500    280.97789    308.09105    -4572.688    -2313.838    272.66255       104448     3599 
SHAKE stats (type/ave/delta) on step 13600
  1 1 1.35477e-06
  1 109.47 9.73714e-05
   13600    279.72364    306.21281   -4597.1763   -2348.4096    193.38589       104448     3599 
SHAKE stats (type/ave/delta) on step 13700
  1 1 7.37571e-07
  1 109.47 5.5406e-05
   13700    264.53405    283.46638    -4540.606   -2413.9521    30.706571       104448     3599 
SHAKE stats (type/ave/delta) on step 13800
  1 1 1.41487e-06
  1 109.47 0.000109216
   13800    270.43756     292.3069   -4569.1349   -2395.0211    127.39599       104448     3599 
SHAKE stats (type/ave/delta) on step 13900
  1 1 1.80063e-06
  1 109.47 0.000158745
   13900    280.79294    307.81409   -4569.7032     -2312.34    131.86336       104448     3599 
SHAKE stats (type/ave/delta) on step 14000
  1 1 5.94358e-07
  1 109.47 7.07342e-05
   14000    276.38514    301.21341    -4498.792   -2276.8642    193.67598       104448     3599 
SHAKE stats (type/ave/delta) on step 14100
  1 1 9.15087e-07
  1 109.47 8.51832e-05
   14100    273.29504    296.58598   -4512.5062   -2315.4205    74.407562       104448     3599 
SHAKE stats (type/ave/delta) on step 14200
  1 1 6.86988e-07
  1 109.47 7.60851e-05
   14200    275.13686     299.3441   -4563.4683   -2351.5758    72.910375       104448     3599 
SHAKE stats (type/ave/delta) on step 14300
  1 1 7.00413e-07
  1 109.47 8.23241e-05
   14300    272.35305    295.17534   -4569.8793   -2380.3665    97.154015       104448     3599 
SHAKE stats (type/ave/delta) on step 14400
  1 1 6.14074e-07
  1 109.47 7.5608e-05
   14400    271.39963     293.7476   -4589.0796   -2407.2315    170.33364       104448     3599 
SHAKE stats (type/ave/delta) on step 14500
  1 1 6.53789e-07
  1 109.47 8.62461e-05
   14500    274.74456    298.75663   -4607.2086   -2398.4699    43.005434       104448     3599 
SHAKE stats (type/ave/delta) on step 14600
  1 1 4.92808e-07
  1 109.47 6.5545e-05
   14600    277.88527    303.45985   -4616.7743   -2382.7866    56.962857       104448     3599 
SHAKE stats (type/ave/delta) on step 14700
  1 1 5.64393e-07
  1 109.47 7.53573e-05
   14700    276.03889     300.6949   -4604.8029   -2385.6587     110.2176       104448     3599 
SHAKE stats (type/ave/delta) on step 14800
  1 1 7.30636e-07
  1 109.47 8.44291e-05
   14800     274.3138    298.11157    -4592.677   -2387.4013    121.48578       104448     3599 
SHAKE stats (type/ave/delta) on step 14900
  1 1 5.58157e-07
  1 109.47 6.45781e-05
   14900    270.85159     292.9269   -4565.0074   -2387.5652    162.57508       104448     3599 
SHAKE stats (type/ave/delta) on step 15000
  1 1 7.34276e-07
  1 109.47 9.36136e-05
   15000    274.44736    298.31158   -4567.5215    -2361.172     202.5399       104448     3599 
SHAKE stats (type/ave/delta) on step 15100
  1 1 5.80494e-07
  1 109.47 7.24556e-05
   15100    275.94275    300.55093   -4566.1873   -2347.8159    110.82607       104448     3599 
SHAKE stats (type/ave/delta) on step 15200
  1 1 6.11157e-07
  1 109.47 8.36822e-05
   15200      273.507    296.90338   -4552.4115   -2353.6219    236.08086       104448     3599 
SHAKE stats (type/ave/delta) on step 15300
  1 1 5.02603e-07
  1 109.47 6.06796e-05
   15300    279.09133    305.26593   -4585.3085    -2341.625    236.68872       104448     3599 
SHAKE stats (type/ave/delta) on step 15400
  1 1 9.04416e-07
  1 109.47 0.000108279
   15400    275.76236    300.28079    -4602.298   -2385.3769    206.23303       104448     3599 
SHAKE stats (type/ave/delta) on step 15500
  1 1 8.10844e-07
  1 109.47 9.58383e-05
   15500    274.37608    298.20483   -4648.0422   -2442.2657    103.84519       104448     3599 
SHAKE stats (type/ave/delta) on step 15600
  1 1 7.79465e-07
  1 109.47 7.39611e-05
   15600    269.73238    291.25088   -4633.3092   -2464.8647    217.80472       104448     3599 
SHAKE stats (type/ave/delta) on step 15700
  1 1 1.04417e-06
  1 109.47 9.72902e-05
   15700    273.56389    296.98858   -4622.1485   -2422.9014    231.53592       104448     3599 
SHAKE stats (type/ave/delta) on step 15800
  1 1 7.71911e-07
  1 109.47 0.000101789
   15800    275.95565    300.57024   -4581.5792   -2363.1042    317.16934       104448     3599 
SHAKE stats (type/ave/delta) on step 15900
  1 1 5.40186e-07
  1 109.47 6.65551e-05
   15900    273.97927    297.61061   -4545.4512   -2342.8648     209.9936       104448     3599 
SHAKE stats (type/ave/delta) on step 16000
  1 1 6.79925e-07
  1 109.47 8.375e-05
   16000    278.94699    305.04977   -4592.9644   -2350.4413    90.251699       104448     3599 
SHAKE stats (type/ave/delta) on step 16100
  1 1 7.65271e-07
  1 109.47 7.76303e-05
   16100    267.13094    287.35523   -4532.2463   -2384.7153    192.12478       104448     3599 
SHAKE stats (type/ave/delta) on step 16200
  1 1 1.02754e-06
  1 109.47 0.000102243
   16200    271.15926    293.38765   -4550.0755   -2370.1598    236.91556       104448     3599 
SHAKE stats (type/ave/delta) on step 16300
  1 1 1.1614e-06
  1 109.47 0.000106085
   16300     278.0419    303.69441    -4523.887   -2288.6401    218.04675       104448     3599 
SHAKE stats (type/ave/delta) on step 16400
  1 1 5.52163e-07
  1 109.47 7.35401e-05
   16400     284.5878     313.4969   -4523.9097   -2236.0387    189.43136       104448     3599 
SHAKE stats (type/ave/delta) on step 16500
  1 1 1.21814e-06
  1 109.47 9.99843e-05
   16500    277.03508    302.18669   -4506.4676   -2279.3148    214.35602       104448     3599 
SHAKE stats (type/ave/delta) on step 16600
  1 1 1.32473e-06
  1 109.47 0.000144374
   16600    268.93694    290.05971   -4533.3567   -2371.3069    95.857908       104448     3599 
SHAKE stats (type/ave/delta) on step 16700
  1 1 5.88227e-07
  1 109.47 6.73933e-05
   16700    268.46544    289.35364   -4548.3129   -2390.0536    130.88511       104448     3599 
SHAKE stats (type/ave/delta) on step 16800
  1 1 8.80007e-07
  1 109.47 9.33286e-05
   16800    278.11578    303.80504   -4573.9987   -2338.1579    287.69567       104448     3599 
SHAKE stats (type/ave/delta) on step 16900
  1 1 7.76665e-07
  1 109.47 8.91614e-05
   16900    283.93346    312.51702   -4604.8499   -2322.2393    190.39916       104448     3599 
SHAKE stats (type/ave/delta) on step 17000
  1 1 1.11012e-06
  1 109.47 9.6674e-05
   17000    272.77933     295.8137   -4562.9012   -2369.9615    199.11034       104448     3599 
SHAKE stats (type/ave/delta) on step 17100
  1 1 9.6127e-07
  1 109.47 9.765e-05
   17100    271.94946    294.57096   -4619.9101   -2433.6419    118.00964       104448     3599 
SHAKE stats (type/ave/delta) on step 17200
  1 1 5.92156e-07
  1 109.47 7.62533e-05
   17200    268.13519    288.85909   -4621.4594    -2465.855    178.40787       104448     3599 
SHAKE stats (type/ave/delta) on step 17300
  1 1 1.02084e-06
  1 109.47 0.000105911
   17300    278.34417    304.14706   -4663.7784   -2426.1014    55.883524       104448     3599 
SHAKE stats (type/ave/delta) on step 17400
  1 1 6.92872e-07
  1 109.47 7.74024e-05
   17400    274.58563    298.51864   -4602.1582   -2394.6971    161.24805       104448     3599 
SHAKE stats (type/ave/delta) on step 17500
  1 1 8.96922e-07
  1 109.47 9.5566e-05
   17500    271.82109    294.37873   -4560.3692    -2375.133    45.201451       104448     3599 
SHAKE stats (type/ave/delta) on step 17600
  1 1 1.0601e-06
  1 109.47 0.000152678
   17600    276.29078     301.0721   -4532.0274   -2310.8581    38.905125       104448     3599 
SHAKE stats (type/ave/delta) on step 17700
  1 1 1.33249e-06
  1 109.47 9.52088e-05
   17700    271.61122    294.06446    -4421.567   -2238.0179    252.75144       104448     3599 
SHAKE stats (type/ave/delta) on step 17800
  1 1 5.73236e-07
  1 109.47 5.87856e-05
   17800    284.47566    313.32897   -4468.7999   -2181.8304    186.29988       104448     3599 
SHAKE stats (type/ave/delta) on step 17900
  1 1 1.14318e-06
  1 109.47 0.000144192
   17900    274.30462    298.09782   -4452.1567   -2246.9548    257.65665       104448     3599 
SHAKE stats (type/ave/delta) on step 18000
  1 1 1.07479e-06
  1 109.47 0.000123963
   18000    270.45291    292.32988   -4525.8844   -2351.6473    75.994358       104448     3599 
SHAKE stats (type/ave/delta) on step 18100
  1 1 1.18036e-06
  1 109.47 8.92446e-05
   18100    263.75303     282.2968   -4501.0298   -2380.6547    119.25538       104448     3599 
SHAKE stats (type/ave/delta) on step 18200
  1 1 7.98256e-07
  1 109.47 7.06672e-05
   18200    273.75451    297.27404   -4531.1063   -2330.3268    159.29922       104448     3599 
SHAKE stats (type/ave/delta) on step 18300
  1 1 5.36016e-07
  1 109.47 5.22606e-05
   18300     273.5187     296.9209    -4511.997   -2313.1133    127.41875       104448     3599 
SHAKE stats (type/ave/delta) on step 18400
  1 1 6.74157e-07
  1 109.47 8.52419e-05
   18400    272.83716     295.9003   -4501.0124   -2307.6077    82.214268       104448     3599 
SHAKE stats (type/ave/delta) on step 18500
  1 1 7.51808e-07
  1 109.47 7.43039e-05
   18500    278.52797    304.42229    -4551.675   -2312.5205    191.36689       104448     3599 
SHAKE stats (type/ave/delta) on step 18600
  1 1 1.07268e-06
  1 109.47 9.92939e-05
   18600    272.23115    294.99279   -4551.9799   -2363.4471    238.05262       104448     3599 
SHAKE stats (type/ave/delta) on step 18700
  1 1 8.0438e-07
  1 109.47 8.08658e-05
   18700    264.50998    283.43034    -4553.235   -2426.7745    203.04664       104448     3599 
SHAKE stats (type/ave/delta) on step 18800
  1 1 6.54572e-07
  1 109.47 9.79022e-05
   18800    270.53002    292.44535    -4594.404    -2419.547     160.3356       104448     3599 
SHAKE stats (type/ave/delta) on step 18900
  1 1 8.95966e-07
  1 109.47 0.000120941
   18900    275.77262    300.29616   -4586.0665   -2369.0629    206.47734       104448     3599 
SHAKE stats (type/ave/delta) on step 19000
  1 1 5.55455e-07
  1 109.47 6.90473e-05
   19000    276.76148    301.77698   -4576.6845   -2351.7312    105.36801       104448     3599 
SHAKE stats (type/ave/delta) on step 19100
  1 1 8.0107e-07
  1 109.47 7.64862e-05
   19100    274.35921    298.17958      -4578.9   -2373.2591    219.79352       104448     3599 
SHAKE stats (type/ave/delta) on step 19200
  1 1 7.15924e-07
  1 109.47 7.15619e-05
   19200    268.64212    289.61822   -4574.5823   -2414.9026    104.84048       104448     3599 
SHAKE stats (type/ave/delta) on step 19300
  1 1 7.17943e-07
  1 109.47 7.94701e-05
   19300    274.30877    298.10404   -4598.4011   -2393.1657   -4.9228346       104448     3599 
SHAKE stats (type/ave/delta) on step 19400
  1 1 8.00487e-07
  1 109.47 7.45501e-05
   19400    275.12063     299.3198   -4570.7489   -2358.9868    150.80416       104448     3599 
SHAKE stats (type/ave/delta) on step 19500
  1 1 5.90455e-07
  1 109.47 5.44049e-05
   19500    275.94839    300.55937   -4575.0243   -2356.6077    93.398767       104448     3599 
SHAKE stats (type/ave/delta) on step 19600
  1 1 8.91626e-07
  1 109.47 7.70324e-05
   19600    273.31081     296.6096   -4578.1788   -2380.9663    218.29069       104448     3599 
SHAKE stats (type/ave/delta) on step 19700
  1 1 1.03021e-06
  1 109.47 9.82216e-05
   19700    269.98333    291.62669   -4599.8684   -2429.4063    247.21351       104448     3599 
SHAKE stats (type/ave/delta) on step 19800
  1 1 6.15991e-07
  1 109.47 7.39961e-05
   19800    272.94629    296.06372     -4644.81   -2450.5281    66.929789       104448     3599 
SHAKE stats (type/ave/delta) on step 19900
  1 1 8.37037e-07
  1 109.47 9.16957e-05
   19900    273.56174    296.98536    -4631.329   -2432.0992    138.97469       104448     3599 
SHAKE stats (type/ave/delta) on step 20000
  1 1 7.62695e-07
  1 109.47 9.24052e-05
   20000    271.41949    293.77734   -4577.6191   -2395.6114    176.19445       104448     3599 
SHAKE stats (type/ave/delta) on step 20100
  1 1 8.23381e-07
  1 109.47 9.60094e-05
   20100    276.61123    301.55198   -4567.8694    -2344.124    50.827699       104448     3599 
SHAKE stats (type/ave/delta) on step 20200
  1 1 6.35098e-07
  1 109.47 6.05511e-05
   20200    282.80608    310.82877   -4587.5811   -2314.0338    208.41383       104448     3599 
SHAKE stats (type/ave/delta) on step 20300
  1 1 1.58968e-06
  1 109.47 0.000133089
   20300    268.32028    289.13627   -4537.9945   -2380.9021    319.16947       104448     3599 
SHAKE stats (type/ave/delta) on step 20400
  1 1 1.25192e-06
  1 109.47 0.000100085
   20400    267.53525    287.96067   -4620.4903    -2469.709    11.488608       104448     3599 
SHAKE stats (type/ave/delta) on step 20500
  1 1 8.25715e-07
  1 109.47 8.60049e-05
   20500    268.11264    288.82533   -4635.6106   -2480.1875    3.5995915       104448     3599 
SHAKE stats (type/ave/delta) on step 20600
  1 1 1.47845e-06
  1 109.47 0.0001145
   20600    272.89105      295.981   -4588.0152   -2394.1773    47.980599       104448     3599 
SHAKE stats (type/ave/delta) on step 20700
  1 1 1.25175e-06
  1 109.47 0.000107681
   20700    281.63801    309.07958   -4566.0346   -2301.8777    170.32195       104448     3599 
SHAKE stats (type/ave/delta) on step 20800
  1 1 1.36092e-06
  1 109.47 0.00010165
   20800    272.92213    296.02754   -4522.5734   -2328.4856    283.29688       104448     3599 
SHAKE stats (type/ave/delta) on step 20900
  1 1 1.00306e-06
  1 109.47 0.000108338
   20900    267.44506    287.82562   -4561.8405   -2411.7842    158.43138       104448     3599 
SHAKE stats (type/ave/delta) on step 21000
  1 1 5.13407e-07
  1 109.47 7.04277e-05
   21000    269.05163    290.23146   -4614.2438   -2451.2719    5.3925033       104448     3599 
SHAKE stats (type/ave/delta) on step 21100
  1 1 1.13813e-06
  1 109.47 0.000126582
   21100     275.1984    299.43626   -4626.3779   -2413.9906    87.191815       104448     3599 
SHAKE stats (type/ave/delta) on step 21200
  1 1 8.2008e-07
  1 109.47 0.00010481
   21200    277.70227    303.18581   -4582.8864   -2350.3699    156.51758       104448     3599 
SHAKE stats (type/ave/delta) on step 21300
  1 1 8.35618e-07
  1 109.47 8.62723e-05
   21300    282.34973    310.14539   -4611.2318   -2341.3532    168.74642       104448     3599 
SHAKE stats (type/ave/delta) on step 21400
  1 1 1.29465e-06
  1 109.47 9.29354e-05
   21400    274.64362    298.60547    -4613.296   -2405.3687    187.67614       104448     3599 
SHAKE stats (type/ave/delta) on step 21500
  1 1 7.62135e-07
  1 109.47 7.59371e-05
   21500    269.09847    290.30161   -4633.9519   -2470.6035    100.39716       104448     3599 
SHAKE stats (type/ave/delta) on step 21600
  1 1 7.12558e-07
  1 109.47 0.000107205
   21600    271.32072    293.62943   -4646.3519   -2465.1382    29.343619       104448     3599 
SHAKE stats (type/ave/delta) on step 21700
  1 1 1.19535e-06
  1 109.47 0.00012812
   21700    270.04899    291.72501   -4575.4463   -2404.4564    147.36168       104448     3599 
SHAKE stats (type/ave/delta) on step 21800
  1 1 6.15239e-07
  1 109.47 8.8371e-05
   21800    282.31956    310.10021   -4609.1708   -2339.5348    221.81667       104448     3599 
SHAKE stats (type/ave/delta) on step 21900
  1 1 9.0311e-07
  1 109.47 7.8406e-05
   21900    278.30956    304.09523   -4602.2394   -2364.8407    224.21239       104448     3599 
SHAKE stats (type/ave/delta) on step 22000
  1 1 1.34945e-06
  1 109.47 0.000149206
   22000    272.06515    294.74421   -4635.8188   -2448.6204    217.32162       104448     3599 
SHAKE stats (type/ave/delta) on step 22100
  1 1 8.29341e-07
  1 109.47 8.20949e-05
   22100    268.85982    289.94423   -4678.8841   -2517.4542    161.50089       104448     3599 
SHAKE stats (type/ave/delta) on step 22200
  1 1 9.64209e-07
  1 109.47 0.000107609
   22200    272.84517     295.9123   -4694.9696   -2501.5005    281.57131       104448     3599 
SHAKE stats (type/ave/delta) on step 22300
  1 1 1.0659e-06
  1 109.47 0.000123302
   22300    277.26509    302.53113   -4659.1156   -2430.1137    154.43953       104448     3599 
SHAKE stats (type/ave/delta) on step 22400
  1 1 6.89339e-07
  1 109.47 7.44996e-05
   22400    279.76757     306.2786   -4647.1685   -2398.0485    259.68419       104448     3599 
SHAKE stats (type/ave/delta) on step 22500
  1 1 1.21341e-06
  1 109.47 0.000100964
   22500    276.05816    300.72375   -4645.6661    -2426.367    263.83106       104448     3599 
SHAKE stats (type/ave/delta) on step 22600
  1 1 5.48943e-07
  1 109.47 5.92254e-05
   22600    269.10872    290.31695   -4613.4615   -2450.0307    59.780993       104448     3599 
SHAKE stats (type/ave/delta) on step 22700
  1 1 7.37594e-07
  1 109.47 8.15342e-05
   22700    273.19369    296.43421   -4627.5844   -2431.3135    156.99213       104448     3599 
SHAKE stats (type/ave/delta) on step 22800
  1 1 5.71595e-07
  1 109.47 7.01695e-05
   22800     273.4829    296.86729   -4606.9461   -2408.3502    356.97102       104448     3599 
SHAKE stats (type/ave/delta) on step 22900
  1 1 1.04044e-06
  1 109.47 8.58371e-05
   22900    276.41299    301.25511    -4647.648   -2425.4963    182.20992       104448     3599 
SHAKE stats (type/ave/delta) on step 23000
  1 1 6.36081e-07
  1 109.47 7.55503e-05
   23000    268.03159    288.70395   -4625.2015     -2470.43    263.90093       104448     3599 
SHAKE stats (type/ave/delta) on step 23100
  1 1 8.52185e-07
  1 109.47 8.39409e-05
   23100    269.23489    290.50589   -4624.7572   -2460.3121    189.48949       104448     3599 
SHAKE stats (type/ave/delta) on step 23200
  1 1 9.05598e-07
  1 109.47 0.000127375
   23200    271.77687    294.31251   -4585.7657   -2400.8849    216.06444       104448     3599 
SHAKE stats (type/ave/delta) on step 23300
  1 1 5.76461e-07
  1 109.47 6.37035e-05
   23300    286.53949    316.41956   -4653.4433   -2349.8822    188.62553       104448     3599 
SHAKE stats (type/ave/delta) on step 23400
  1 1 1.26594e-06
  1 109.47 0.000118111
   23400    275.98527     300.6146   -4639.9496   -2421.2364    203.03738       104448     3599 
SHAKE stats (type/ave/delta) on step 23500
  1 1 8.20701e-07
  1 109.47 8.20117e-05
   23500    269.60175    291.05526   -4661.4148   -2494.0203    91.825373       104448     3599 
SHAKE stats (type/ave/delta) on step 23600
  1 1 6.36446e-07
  1 109.47 7.3224e-05
   23600    266.79413    286.85085   -4652.9135   -2508.0902    117.98768       104448     3599 
SHAKE stats (type/ave/delta) on step 23700
  1 1 7.58558e-07
  1 109.47 8.65448e-05
   23700     272.2936    295.08632   -4678.1336   -2489.0987    132.72644       104448     3599 
SHAKE stats (type/ave/delta) on step 23800
  1 1 6.92936e-07
  1 109.47 7.67657e-05
   23800    276.00824      300.649   -4691.0732   -2472.1754    150.99241       104448     3599 
SHAKE stats (type/ave/delta) on step 23900
  1 1 6.83119e-07
  1 109.47 6.2855e-05
   23900     276.5251      301.423     -4681.43    -2458.377    169.34163       104448     3599 
SHAKE stats (type/ave/delta) on step 24000
  1 1 6.14839e-07
  1 109.47 6.9918e-05
   24000    272.56661    295.49514   -4655.9425   -2464.7129    198.05118       104448     3599 
SHAKE stats (type/ave/delta) on step 24100
  1 1 6.5671e-07
  1 109.47 5.97153e-05
   24100    274.35157    298.16813    -4665.513   -2459.9336    157.89377       104448     3599 
SHAKE stats (type/ave/delta) on step 24200
  1 1 6.54325e-07
  1 109.47 6.78493e-05
   24200    274.44677    298.31069   -4657.9752   -2451.6304    281.98416       104448     3599 
SHAKE stats (type/ave/delta) on step 24300
  1 1 5.02163e-07
  1 109.47 5.68706e-05
   24300    271.01524    293.17197   -4633.9401   -2455.1822     315.8146       104448     3599 
SHAKE stats (type/ave/delta) on step 24400
  1 1 5.61673e-07
  1 109.47 6.34029e-05
   24400    274.22966    297.98557   -4650.6806   -2446.0813    233.78922       104448     3599 
SHAKE stats (type/ave/delta) on step 24500
  1 1 6.19061e-07
  1 109.47 7.82543e-05
   24500    283.51063    311.88383   -4718.1698   -2438.9585    160.35706       104448     3599 
SHAKE stats (type/ave/delta) on step 24600
  1 1 1.01945e-06
  1 109.47 9.18741e-05
   24600    274.00709    297.65227   -4697.0084   -2494.1983    254.93405       104448     3599 
SHAKE stats (type/ave/delta) on step 24700
  1 1 6.60445e-07
  1 109.47 8.09122e-05
   24700    268.91898    290.03282   -4693.5846   -2531.6791    209.14797       104448     3599 
SHAKE stats (type/ave/delta) on step 24800
  1 1 9.02014e-07
  1 109.47 9.18228e-05
   24800    273.20581    296.45235   -4694.1938   -2497.8255    189.62567       104448     3599 
SHAKE stats (type/ave/delta) on step 24900
  1 1 1.03232e-06
  1 109.47 9.12734e-05
   24900     279.1072    305.28969   -4689.7106   -2445.8995    188.64406       104448     3599 
SHAKE stats (type/ave/delta) on step 25000
  1 1 8.41833e-07
  1 109.47 7.99262e-05
   25000    282.20767    309.93265   -4700.1417   -2431.4052    239.60001       104448     3599 
SHAKE stats (type/ave/delta) on step 25100
  1 1 1.34669e-06
  1 109.47 9.4929e-05
   25100    273.63446    297.09425    -4704.647   -2504.8326    111.39397       104448     3599 
SHAKE stats (type/ave/delta) on step 25200
  1 1 8.40474e-07
  1 109.47 7.37234e-05
   25200    264.94572    284.08286   -4708.7454   -2578.7819    115.10855       104448     3599 
SHAKE stats (type/ave/delta) on step 25300
  1 1 1.03414e-06
  1 109.47 0.000146346
   25300    271.09758    293.29528   -4727.2722   -2547.8524    144.02583       104448     3599 
SHAKE stats (type/ave/delta) on step 25400
  1 1 8.94159e-07
  1 109.47 0.000108661
   25400    280.82291    307.85897   -4720.6566   -2463.0525    236.67787       104448     3599 
SHAKE stats (type/ave/delta) on step 25500
  1 1 6.45397e-07
  1 109.47 7.21301e-05
   25500    278.65205     304.6081   -4667.1529   -2427.0009    242.78834       104448     3599 
SHAKE stats (type/ave/delta) on step 25600
  1 1 6.11185e-07
  1 109.47 7.07303e-05
   25600    273.77799     297.3092   -4640.0462   -2439.0779    140.32392       104448     3599 
SHAKE stats (type/ave/delta) on step 25700
  1 1 6.59592e-07
  1 109.47 8.14009e-05
   25700    272.01625    294.67098   -4653.0453   -2466.2402    72.646386       104448     3599 
SHAKE stats (type/ave/delta) on step 25800
  1 1 6.83456e-07
  1 109.47 7.05206e-05
   25800    275.16717     299.3895   -4697.6825   -2485.5462    182.67964       104448     3599 
SHAKE stats (type/ave/delta) on step 25900
  1 1 6.18338e-07
  1 109.47 7.24519e-05
   25900    277.54352    302.94808    -4732.977   -2501.7367    77.993209       104448     3599 
SHAKE stats (type/ave/delta) on step 26000
  1 1 7.62226e-07
  1 109.47 6.5917e-05
   26000    275.71932    300.21634   -4747.0012   -2530.4261    240.85083       104448     3599 
SHAKE stats (type/ave/delta) on step 26100
  1 1 7.28293e-07
  1 109.47 7.26075e-05
   26100    273.23101    296.49009    -4739.086   -2542.5151    262.82818       104448     3599 
SHAKE stats (type/ave/delta) on step 26200
  1 1 7.03214e-07
  1 109.47 7.70129e-05
   26200    268.75897    289.79321   -4721.9312    -2561.312    421.89074       104448     3599 
SHAKE stats (type/ave/delta) on step 26300
  1 1 6.22788e-07
  1 109.47 8.8454e-05
   26300    273.07951    296.26322   -4750.9442   -2555.5912    228.98517       104448     3599 
SHAKE stats (type/ave/delta) on step 26400
  1 1 6.02294e-07
  1 109.47 7.42501e-05
   26400    276.02038    300.66717   -4761.8376   -2542.8423    160.05963       104448     3599 
SHAKE stats (type/ave/delta) on step 26500
  1 1 7.05407e-07
  1 109.47 5.15593e-05
   26500      274.632    298.58807   -4745.0612   -2537.2274    203.94007       104448     3599 
SHAKE stats (type/ave/delta) on step 26600
  1 1 6.73438e-07
  1 109.47 7.08326e-05
   26600    277.89896    303.48036   -4769.5907   -2535.4929    165.11492       104448     3599 
SHAKE stats (type/ave/delta) on step 26700
  1 1 5.37712e-07
  1 109.47 6.41382e-05
   26700    272.76495    295.79217   -4733.4357   -2540.6114    241.49804       104448     3599 
SHAKE stats (type/ave/delta) on step 26800
  1 1 5.95306e-07
  1 109.47 6.79857e-05
   26800    273.19695    296.43908   -4748.5724   -2552.2753    207.58006       104448     3599 
SHAKE stats (type/ave/delta) on step 26900
  1 1 5.67124e-07
  1 109.47 7.07516e-05
   26900    274.85045     298.9152   -4765.7584   -2556.1684    77.439979       104448     3599 
SHAKE stats (type/ave/delta) on step 27000
  1 1 6.43771e-07
  1 109.47 8.24422e-05
   27000    271.12465    293.33581   -4731.9223   -2552.2849    209.24973       104448     3599 
SHAKE stats (type/ave/delta) on step 27100
  1 1 5.75891e-07
  1 109.47 7.74171e-05
   27100     277.2845     302.5602   -4759.1183   -2529.9603    289.45156       104448     3599 
SHAKE stats (type/ave/delta) on step 27200
  1 1 6.95985e-07
  1 109.47 7.24179e-05
   27200     275.9634    300.58185   -4746.3169   -2527.7796    135.52411       104448     3599 
SHAKE stats (type/ave/delta) on step 27300
  1 1 6.68172e-07
  1 109.47 8.00452e-05
   27300    274.80745    298.85081    -4733.307   -2524.0627    256.86185       104448     3599 
SHAKE stats (type/ave/delta) on step 27400
  1 1 6.51708e-07
  1 109.47 7.27733e-05
   27400    276.85906     301.9231   -4755.4009   -2529.6631    166.83372       104448     3599 
SHAKE stats (type/ave/delta) on step 27500
  1 1 5.55728e-07
  1 109.47 5.17641e-05
   27500    272.79977    295.84431   -4737.6454   -2544.5412    90.443174       104448     3599 
SHAKE stats (type/ave/delta) on step 27600
  1 1 8.13767e-07
  1 109.47 7.2983e-05
   27600    271.63721    294.10337   -4758.9136   -2575.1556    81.110296       104448     3599 
SHAKE stats (type/ave/delta) on step 27700
  1 1 9.24026e-07
  1 109.47 8.01995e-05
   27700    273.68473    297.16954    -4780.566   -2580.3475    119.00195       104448     3599 
SHAKE stats (type/ave/delta) on step 27800
  1 1 1.02025e-06
  1 109.47 9.00033e-05
   27800    277.91513    303.50456   -4775.4941   -2541.2664     251.5421       104448     3599 
SHAKE stats (type/ave/delta) on step 27900
  1 1 6.95913e-07
  1 109.47 6.94895e-05
   27900    274.82731    298.88056   -4725.4757   -2516.0717    380.70765       104448     3599 
SHAKE stats (type/ave/delta) on step 28000
  1 1 6.39106e-07
  1 109.47 8.08e-05
   28000    276.23182     300.9838   -4735.6382    -2514.943     238.9462       104448     3599 
SHAKE stats (type/ave/delta) on step 28100
  1 1 5.87745e-07
  1 109.47 6.68971e-05
   28100    271.74394     294.2632   -4724.6718   -2540.0557    242.05138       104448     3599 
SHAKE stats (type/ave/delta) on step 28200
  1 1 8.22218e-07
  1 109.47 6.91046e-05
   28200    279.91378    306.49754   -4804.2529   -2553.9576    196.10902       104448     3599 
SHAKE stats (type/ave/delta) on step 28300
  1 1 8.79738e-07
  1 109.47 8.15577e-05
   28300    274.20076    297.94229   -4808.8831   -2604.5161    249.75845       104448     3599 
SHAKE stats (type/ave/delta) on step 28400
  1 1 6.14255e-07
  1 109.47 8.86897e-05
   28400    270.26054    292.04181   -4804.9118   -2632.2212    152.41658       104448     3599 
SHAKE stats (type/ave/delta) on step 28500
  1 1 8.13733e-07
  1 109.47 0.000108814
   28500     275.8965    300.48166   -4817.5023   -2599.5028    227.48115       104448     3599 
SHAKE stats (type/ave/delta) on step 28600
  1 1 9.35307e-07
  1 109.47 0.000102477
   28600    278.53604    304.43439   -4794.1273   -2554.9078    187.24916       104448     3599 
SHAKE stats (type/ave/delta) on step 28700
  1 1 6.33927e-07
  1 109.47 6.45272e-05
   28700    280.64425    307.59143   -4818.1941   -2562.0263    239.89476       104448     3599 
SHAKE stats (type/ave/delta) on step 28800
  1 1 1.05e-06
  1 109.47 9.58825e-05
   28800    276.21944    300.96527   -4838.8243   -2618.2287    189.64858       104448     3599 
SHAKE stats (type/ave/delta) on step 28900
  1 1 8.51948e-07
  1 109.47 8.59777e-05
   28900    268.09996    288.80633   -4837.1047   -2681.7836    351.89366       104448     3599 
SHAKE stats (type/ave/delta) on step 29000
  1 1 1.29582e-06
  1 109.47 0.000103147
   29000    275.81418    300.35839    -4884.422   -2667.0843    218.95337       104448     3599 
SHAKE stats (type/ave/delta) on step 29100
  1 1 9.82638e-07
  1 109.47 0.000123799
   29100    273.79585    297.33593   -4817.8175   -2616.7057    258.41476       104448     3599 
SHAKE stats (type/ave/delta) on step 29200
  1 1 8.25199e-07
  1 109.47 0.000112097
   29200    275.54877    299.96094   -4776.3881   -2561.1841    267.70844       104448     3599 
SHAKE stats (type/ave/delta) on step 29300
  1 1 6.12525e-07
  1 109.47 6.51007e-05
   29300    281.03686    308.17936   -4796.7507   -2537.4267     389.7691       104448     3599 
SHAKE stats (type/ave/delta) on step 29400
  1 1 1.56398e-06
  1 109.47 0.000144364
   29400    274.18894     297.9246   -4812.8069   -2608.5349    246.74576       104448     3599 
SHAKE stats (type/ave/delta) on step 29500
  1 1 9.56994e-07
  1 109.47 7.33562e-05
   29500    270.34358    292.16616   -4869.7929   -2696.4347    263.46668       104448     3599 
SHAKE stats (type/ave/delta) on step 29600
  1 1 7.15065e-07
  1 109.47 8.2189e-05
   29600    273.64605    297.11161   -4907.6488   -2707.7413    269.81741       104448     3599 
SHAKE stats (type/ave/delta) on step 29700
  1 1 6.32811e-07
  1 109.47 7.3972e-05
   29700    274.33974    298.15042   -4897.0258   -2691.5415    352.38739       104448     3599 
SHAKE stats (type/ave/delta) on step 29800
  1 1 6.18366e-07
  1 109.47 7.68819e-05
   29800    275.63766    300.09405   -4892.5464   -2676.6278    329.24904       104448     3599 
SHAKE stats (type/ave/delta) on step 29900
  1 1 6.47533e-07
  1 109.47 7.7938e-05
   29900    272.94264    296.05825   -4888.0798   -2693.8272    252.91182       104448     3599 
SHAKE stats (type/ave/delta) on step 30000
  1 1 7.10098e-07
  1 109.47 6.77624e-05
   30000    273.31377    296.61403   -4901.2721   -2704.0358    327.95357       104448     3599 
SHAKE stats (type/ave/delta) on step 30100
  1 1 6.39428e-07
  1 109.47 7.88228e-05
   30100    278.66173    304.62259   -4923.1446   -2682.9148    201.41541       104448     3599 
SHAKE stats (type/ave/delta) on step 30200
  1 1 6.35764e-07
  1 109.47 6.82812e-05
   30200    267.81513     288.3798   -4829.1655   -2676.1341     430.0246       104448     3599 
SHAKE stats (type/ave/delta) on step 30300
  1 1 7.34739e-07
  1 109.47 7.79722e-05
   30300    277.76233    303.27575   -4894.4263    -2661.427    289.34483       104448     3599 
SHAKE stats (type/ave/delta) on step 30400
  1 1 7.44924e-07
  1 109.47 0.000107152
   30400    272.79203    295.83272   -4831.4038   -2638.3619    327.12699       104448     3599 
SHAKE stats (type/ave/delta) on step 30500
  1 1 6.61606e-07
  1 109.47 8.26038e-05
   30500    278.84633    304.89904   -4851.8342   -2610.1204    302.51811       104448     3599 
SHAKE stats (type/ave/delta) on step 30600
  1 1 6.43078e-07
  1 109.47 8.61039e-05
   30600    277.20118    302.43542    -4837.233    -2608.745    285.38514       104448     3599 
SHAKE stats (type/ave/delta) on step 30700
  1 1 6.63367e-07
  1 109.47 6.42209e-05
   30700    273.59163    297.03011   -4838.0446   -2638.5746     254.2239       104448     3599 
SHAKE stats (type/ave/delta) on step 30800
  1 1 6.00093e-07
  1 109.47 7.51444e-05
   30800    274.47034      298.346   -4854.5168   -2647.9826     353.6919       104448     3599 
SHAKE stats (type/ave/delta) on step 30900
  1 1 6.75783e-07
  1 109.47 6.97865e-05
   30900    274.15973    297.88085   -4858.3817   -2654.3445    441.44689       104448     3599 
SHAKE stats (type/ave/delta) on step 31000
  1 1 7.13708e-07
  1 109.47 8.12221e-05
   31000    275.31519    299.61115   -4898.3109   -2684.9847    290.05019       104448     3599 
SHAKE stats (type/ave/delta) on step 31100
  1 1 6.34632e-07
  1 109.47 6.62802e-05
   31100    269.87028    291.45739   -4876.2976   -2706.7444    364.23509       104448     3599 
SHAKE stats (type/ave/delta) on step 31200
  1 1 7.36852e-07
  1 109.47 8.90603e-05
   31200    271.78725    294.32805   -4864.4395   -2679.4753    309.82817       104448     3599 
SHAKE stats (type/ave/delta) on step 31300
  1 1 7.08384e-07
  1 109.47 8.45346e-05
   31300    275.59283    300.02692   -4852.5786   -2637.0203    354.84075       104448     3599 
SHAKE stats (type/ave/delta) on step 31400
  1 1 6.38995e-07
  1 109.47 7.39321e-05
   31400    278.12863    303.82428   -4857.1304   -2621.1863    519.57476       104448     3599 
SHAKE stats (type/ave/delta) on step 31500
  1 1 1.07784e-06
  1 109.47 9.1815e-05
   31500    273.20072    296.44473    -4860.667   -2664.3396     471.9198       104448     3599 
SHAKE stats (type/ave/delta) on step 31600
  1 1 1.09651e-06
  1 109.47 9.03585e-05
   31600    269.77159    291.30961   -4899.8216   -2731.0617    347.63356       104448     3599 
SHAKE stats (type/ave/delta) on step 31700
  1 1 6.34034e-07
  1 109.47 6.67801e-05
   31700    270.33209    292.14895   -4952.0417   -2778.7759    266.16008       104448     3599 
SHAKE stats (type/ave/delta) on step 31800
  1 1 1.02112e-06
  1 109.47 0.000108857
   31800    265.42559    284.80146   -4913.7419   -2779.9206     342.1899       104448     3599 
SHAKE stats (type/ave/delta) on step 31900
  1 1 1.34e-06
  1 109.47 0.000185516
   31900    273.03445    296.19575   -4887.1836   -2692.1929    360.34041       104448     3599 
SHAKE stats (type/ave/delta) on step 32000
  1 1 9.67219e-07
  1 109.47 9.33862e-05
   32000    279.84188    306.38988   -4857.2974   -2607.5801    395.74232       104448     3599 
SHAKE stats (type/ave/delta) on step 32100
  1 1 8.24753e-07
  1 109.47 7.91655e-05
   32100    279.27213    305.53667   -4849.3904   -2604.2534    452.12629       104448     3599 
SHAKE stats (type/ave/delta) on step 32200
  1 1 1.15806e-06
  1 109.47 0.000124418
   32200      275.477    299.85347   -4892.3402   -2677.7131    350.46234       104448     3599 
SHAKE stats (type/ave/delta) on step 32300
  1 1 8.076e-07
  1 109.47 8.89632e-05
   32300    267.19932    287.45763   -4911.6142   -2763.5335    312.30446       104448     3599 
SHAKE stats (type/ave/delta) on step 32400
  1 1 8.69861e-07
  1 109.47 0.000107224
   32400    269.05809    290.24114   -4921.5638   -2758.5399    271.40857       104448     3599 
SHAKE stats (type/ave/delta) on step 32500
  1 1 1.36561e-06
  1 109.47 0.000165474
   32500    275.96444     300.5834   -4893.3003   -2674.7546    321.16315       104448     3599 
SHAKE stats (type/ave/delta) on step 32600
  1 1 7.36634e-07
  1 109.47 8.18996e-05
   32600    280.54108    307.43693   -4879.3484     -2624.01    416.72312       104448     3599 
SHAKE stats (type/ave/delta) on step 32700
  1 1 9.26687e-07
  1 109.47 8.54245e-05
   32700    279.01212    305.14731    -4893.667   -2650.6203    357.95955       104448     3599 
SHAKE stats (type/ave/delta) on step 32800
  1 1 1.37912e-06
  1 109.47 0.000112619
   32800    271.90816    294.50912   -4903.1705   -2717.2342    296.24772       104448     3599 
SHAKE stats (type/ave/delta) on step 32900
  1 1 6.68063e-07
  1 109.47 6.21334e-05
   32900    269.33073    290.64941   -4923.8593   -2758.6437    255.66753       104448     3599 
SHAKE stats (type/ave/delta) on step 33000
  1 1 7.61257e-07
  1 109.47 7.5895e-05
   33000    271.27409     293.5596   -4930.8465   -2750.0078    421.88899       104448     3599 
SHAKE stats (type/ave/delta) on step 33100
  1 1 7.63824e-07
  1 109.47 0.000104835
   33100     277.8859     303.4608   -4945.7683   -2711.7756    487.46575       104448     3599 
SHAKE stats (type/ave/delta) on step 33200
  1 1 6.14238e-07
  1 109.47 7.1317e-05
   33200    276.82937    301.87864   -4918.7642   -2693.2652    504.98616       104448     3599 
SHAKE stats (type/ave/delta) on step 33300
  1 1 5.69341e-07
  1 109.47 7.97192e-05
   33300      268.652    289.63302   -4868.4365   -2708.6773    542.38869       104448     3599 
SHAKE stats (type/ave/delta) on step 33400
  1 1 6.68885e-07
  1 109.47 8.07436e-05
   33400    274.57601    298.50423   -4907.6247    -2700.241    449.53797       104448     3599 
SHAKE stats (type/ave/delta) on step 33500
  1 1 6.6865e-07
  1 109.47 7.43566e-05
   33500    272.64369    295.61058   -4876.4038   -2684.5545    455.53343       104448     3599 
SHAKE stats (type/ave/delta) on step 33600
  1 1 5.09747e-07
  1 109.47 6.70722e-05
   33600    277.16043     302.3744    -4890.847   -2662.6865    296.44292       104448     3599 
SHAKE stats (type/ave/delta) on step 33700
  1 1 1.01433e-06
  1 109.47 9.01488e-05
   33700    275.60473    300.04474   -4909.6812   -2694.0274    417.79089       104448     3599 
SHAKE stats (type/ave/delta) on step 33800
  1 1 8.84575e-07
  1 109.47 7.59207e-05
   33800    270.50102    292.40192   -4929.7689    -2755.145    318.66259       104448     3599 
SHAKE stats (type/ave/delta) on step 33900
  1 1 7.34164e-07
  1 109.47 8.68171e-05
   33900    272.44063     295.3065   -4963.3989    -2773.182    266.14017       104448     3599 
SHAKE stats (type/ave/delta) on step 34000
  1 1 1.50303e-06
  1 109.47 0.000170498
   34000    274.83633    298.89405   -4932.6953   -2723.2188    338.24655       104448     3599 
SHAKE stats (type/ave/delta) on step 34100
  1 1 1.14176e-06
  1 109.47 0.000149648
   34100     278.9383    305.03677   -4892.9617   -2650.5084    419.59929       104448     3599 
SHAKE stats (type/ave/delta) on step 34200
  1 1 6.81576e-07
  1 109.47 8.4574e-05
   34200    278.05272    303.71061   -4866.6577   -2631.3239    425.66131       104448     3599 
SHAKE stats (type/ave/delta) on step 34300
  1 1 1.12881e-06
  1 109.47 8.55575e-05
   34300    273.72368    297.22786   -4883.7296    -2683.198    249.44862       104448     3599 
SHAKE stats (type/ave/delta) on step 34400
  1 1 6.91616e-07
  1 109.47 7.89995e-05
   34400    271.67627    294.16187   -4904.0754   -2720.0034    230.87573       104448     3599 
SHAKE stats (type/ave/delta) on step 34500
  1 1 6.97378e-07
  1 109.47 9.84545e-05
   34500    272.37975    295.21533   -4902.0469   -2712.3195    284.99152       104448     3599 
SHAKE stats (type/ave/delta) on step 34600
  1 1 7.31505e-07
  1 109.47 9.0053e-05
   34600    272.41773     295.2722   -4854.7225   -2664.6897    348.82486       104448     3599 
SHAKE stats (type/ave/delta) on step 34700
  1 1 7.8339e-07
  1 109.47 9.04762e-05
   34700     277.5846     303.0096    -4847.409   -2615.8384    331.13282       104448     3599 
SHAKE stats (type/ave/delta) on step 34800
  1 1 7.1772e-07
  1 109.47 7.21787e-05
   34800    279.42371    305.76366   -4860.4071   -2614.0516    359.15579       104448     3599 
SHAKE stats (type/ave/delta) on step 34900
  1 1 1.15344e-06
  1 109.47 0.000103698
   34900    272.72327    295.72975   -4852.7117   -2660.2226    316.17499       104448     3599 
SHAKE stats (type/ave/delta) on step 35000
  1 1 7.18828e-07
  1 109.47 9.13106e-05
   35000    265.93911    285.57046   -4860.6326    -2722.683    336.77158       104448     3599 
SHAKE stats (type/ave/delta) on step 35100
  1 1 7.53454e-07
  1 109.47 7.98438e-05
   35100    268.21141    288.97324   -4875.5717   -2719.3545    215.61493       104448     3599 
SHAKE stats (type/ave/delta) on step 35200
  1 1 1.17991e-06
  1 109.47 0.000107189
   35200    278.55086    304.45658   -4903.0844   -2663.7459    349.66294       104448     3599 
SHAKE stats (type/ave/delta) on step 35300
  1 1 6.47812e-07
  1 109.47 7.6161e-05
   35300    279.00279    305.13334    -4897.409   -2654.4373    456.55134       104448     3599 
SHAKE stats (type/ave/delta) on step 35400
  1 1 7.83655e-07
  1 109.47 8.1432e-05
   35400    271.33634    293.65282   -4875.0284   -2693.6892    278.11174       104448     3599 
SHAKE stats (type/ave/delta) on step 35500
  1 1 6.25043e-07
  1 109.47 7.97712e-05
   35500    270.72595    292.73875   -4880.4281    -2703.996    179.09227       104448     3599 
SHAKE stats (type/ave/delta) on step 35600
  1 1 1.01025e-06
  1 109.47 0.000131549
   35600    278.99063    305.11513   -4890.9184   -2648.0445    171.74376       104448     3599 
SHAKE stats (type/ave/delta) on step 35700
  1 1 6.40516e-07
  1 109.47 6.71881e-05
   35700    271.63064    294.09353   -4792.0451   -2608.3399    438.99566       104448     3599 
SHAKE stats (type/ave/delta) on step 35800
  1 1 8.66028e-07
  1 109.47 9.15476e-05
   35800    274.23636     297.9956   -4823.1617   -2618.5085    382.08846       104448     3599 
SHAKE stats (type/ave/delta) on step 35900
  1 1 9.04335e-07
  1 109.47 0.000105928
   35900    270.19117    291.93792   -4831.1021   -2658.9692    358.33682       104448     3599 
SHAKE stats (type/ave/delta) on step 36000
  1 1 7.10287e-07
  1 109.47 6.90118e-05
   36000    272.37545    295.20889   -4868.7341   -2679.0412    310.27385       104448     3599 
SHAKE stats (type/ave/delta) on step 36100
  1 1 8.25394e-07
  1 109.47 6.69949e-05
   36100    271.32658     293.6382   -4844.4533   -2663.1925    287.99145       104448     3599 
SHAKE stats (type/ave/delta) on step 36200
  1 1 7.09066e-07
  1 109.47 0.000101939
   36200    274.91306    299.00897   -4833.6166   -2623.5232     338.8619       104448     3599 
SHAKE stats (type/ave/delta) on step 36300
  1 1 7.18698e-07
  1 109.47 6.73318e-05
   36300    279.12918     305.3226   -4843.5096   -2599.5218    266.76862       104448     3599 
SHAKE stats (type/ave/delta) on step 36400
  1 1 6.49281e-07
  1 109.47 6.75498e-05
   36400    278.70978    304.69455   -4848.3528   -2607.7367    221.28614       104448     3599 
SHAKE stats (type/ave/delta) on step 36500
  1 1 7.59692e-07
  1 109.47 7.79065e-05
   36500    269.94361    291.56721   -4812.9368   -2642.7941    220.58348       104448     3599 
SHAKE stats (type/ave/delta) on step 36600
  1 1 1.20861e-06
  1 109.47 0.000122975
   36600    274.49816    298.38764   -4840.7525   -2633.9947    170.13943       104448     3599 
SHAKE stats (type/ave/delta) on step 36700
  1 1 9.43747e-07
  1 109.47 9.16014e-05
   36700    279.50474      305.885   -4825.5044   -2578.4975    154.03082       104448     3599 
SHAKE stats (type/ave/delta) on step 36800
  1 1 6.20867e-07
  1 109.47 6.61717e-05
   36800    278.09925    303.78029   -4775.0684   -2539.3605    241.52397       104448     3599 
SHAKE stats (type/ave/delta) on step 36900
  1 1 1.32623e-06
  1 109.47 9.32296e-05
   36900    276.92655    302.02416   -4806.3406   -2580.0603     236.4241       104448     3599 
SHAKE stats (type/ave/delta) on step 37000
  1 1 9.69665e-07
  1 109.47 8.3094e-05
   37000    269.11728    290.32978   -4814.4477    -2650.948     106.8958       104448     3599 
SHAKE stats (type/ave/delta) on step 37100
  1 1 6.8558e-07
  1 109.47 8.50088e-05
   37100     272.2891    295.07958   -4853.5913   -2664.5926    82.663557       104448     3599 
SHAKE stats (type/ave/delta) on step 37200
  1 1 6.39422e-07
  1 109.47 9.38084e-05
   37200     274.8651    298.93714   -4837.3153   -2627.6075    163.33431       104448     3599 
SHAKE stats (type/ave/delta) on step 37300
  1 1 1.01326e-06
  1 109.47 0.000113181
   37300       275.09    299.27392   -4799.1637   -2587.6479    303.59481       104448     3599 
SHAKE stats (type/ave/delta) on step 37400
  1 1 6.90145e-07
  1 109.47 7.66853e-05
   37400    277.19987    302.43346   -4776.9785   -2548.5009    299.65629       104448     3599 
SHAKE stats (type/ave/delta) on step 37500
  1 1 5.62047e-07
  1 109.47 6.5963e-05
   37500    272.72308    295.72947   -4742.0784   -2549.5908    285.20898       104448     3599 
SHAKE stats (type/ave/delta) on step 37600
  1 1 8.10957e-07
  1 109.47 7.12808e-05
   37600    272.79781    295.84137   -4766.4844   -2573.3961    240.80568       104448     3599 
SHAKE stats (type/ave/delta) on step 37700
  1 1 6.55924e-07
  1 109.47 6.958e-05
   37700    268.93374    290.05492   -4765.9283   -2603.9042    293.39823       104448     3599 
SHAKE stats (type/ave/delta) on step 37800
  1 1 8.11324e-07
  1 109.47 9.30623e-05
   37800    272.87259    295.95336   -4782.1691   -2588.4796    242.09366       104448     3599 
SHAKE stats (type/ave/delta) on step 37900
  1 1 6.92672e-07
  1 109.47 0.000100657
   37900    275.61395    300.05854   -4765.8726   -2550.1446    194.76399       104448     3599 
SHAKE stats (type/ave/delta) on step 38000
  1 1 5.29604e-07
  1 109.47 6.38315e-05
   38000    273.87711    297.45763   -4723.9375   -2522.1723     253.2411       104448     3599 
SHAKE stats (type/ave/delta) on step 38100
  1 1 8.13258e-07
  1 109.47 8.8084e-05
   38100    276.30071    301.08697   -4717.0049   -2495.7559    207.40329       104448     3599 
SHAKE stats (type/ave/delta) on step 38200
  1 1 6.45035e-07
  1 109.47 6.67626e-05
   38200    279.80339    306.33224   -4741.3985   -2491.9906    141.15941       104448     3599 
SHAKE stats (type/ave/delta) on step 38300
  1 1 7.62431e-07
  1 109.47 7.83462e-05
   38300    276.65384    301.61579   -4754.0053   -2529.9174    182.12051       104448     3599 
SHAKE stats (type/ave/delta) on step 38400
  1 1 6.42063e-07
  1 109.47 7.32569e-05
   38400    274.54837    298.46284   -4768.4306   -2561.2691    107.96943       104448     3599 
SHAKE stats (type/ave/delta) on step 38500
  1 1 6.85286e-07
  1 109.47 8.31533e-05
   38500     270.2855    292.07919   -4755.3599   -2582.4686    88.872144       104448     3599 
SHAKE stats (type/ave/delta) on step 38600
  1 1 6.18266e-07
  1 109.47 8.78217e-05
   38600    270.98319    293.12398    -4760.053   -2581.5528     164.8468       104448     3599 
SHAKE stats (type/ave/delta) on step 38700
  1 1 7.39985e-07
  1 109.47 8.16013e-05
   38700     273.4413      296.805   -4749.3086    -2551.047    76.228686       104448     3599 
SHAKE stats (type/ave/delta) on step 38800
  1 1 5.57596e-07
  1 109.47 8.16899e-05
   38800    272.56327    295.49015   -4710.5868    -2519.384    82.240513       104448     3599 
SHAKE stats (type/ave/delta) on step 38900
  1 1 8.12264e-07
  1 109.47 7.18044e-05
   38900    280.96787    308.07605   -4746.1763   -2487.4068     218.7297       104448     3599 
SHAKE stats (type/ave/delta) on step 39000
  1 1 1.05626e-06
  1 109.47 0.000129251
   39000    275.46756    299.83933   -4719.5388   -2504.9877    206.38797       104448     3599 
SHAKE stats (type/ave/delta) on step 39100
  1 1 8.72988e-07
  1 109.47 8.43589e-05
   39100    274.80997    298.85459   -4765.0911   -2555.8265    66.775691       104448     3599 
SHAKE stats (type/ave/delta) on step 39200
  1 1 6.37926e-07
  1 109.47 7.29291e-05
[...]
  1 109.47 7.39171e-05
  141500    312.77902    355.71329   -3720.4792   -1205.9721    203.44021       104448     3599 
SHAKE stats (type/ave/delta) on step 141600
  1 1 1.3171e-06
  1 109.47 0.000189479
  141600     320.4348    367.17783   -3735.9143   -1159.8605    247.44616       104448     3599 
SHAKE stats (type/ave/delta) on step 141700
  1 1 7.79659e-07
  1 109.47 7.07372e-05
  141700    324.07551    372.62979   -3701.3377   -1096.0154    254.60461       104448     3599 
SHAKE stats (type/ave/delta) on step 141800
  1 1 5.41556e-07
  1 109.47 6.00721e-05
  141800    328.80937    379.71876   -3725.3491   -1081.9701    161.30954       104448     3599 
SHAKE stats (type/ave/delta) on step 141900
  1 1 6.61e-07
  1 109.47 6.46176e-05
  141900    320.79449    367.71647   -3687.7118   -1108.7664    266.03822       104448     3599 
SHAKE stats (type/ave/delta) on step 142000
  1 1 6.51918e-07
  1 109.47 7.70731e-05
  142000    316.33092    361.03227   -3669.6484   -1126.5867    128.94814       104448     3599 
SHAKE stats (type/ave/delta) on step 142100
  1 1 7.95815e-07
  1 109.47 9.32756e-05
  142100    322.11165    369.68892   -3722.0366   -1132.5022    236.31048       104448     3599 
SHAKE stats (type/ave/delta) on step 142200
  1 1 7.65627e-07
  1 109.47 8.06494e-05
  142200    323.45698    371.70355   -3675.8989    -1075.549    307.16338       104448     3599 
SHAKE stats (type/ave/delta) on step 142300
  1 1 9.64415e-07
  1 109.47 8.09105e-05
  142300    326.27411    375.92221   -3661.2514    -1038.254     328.7183       104448     3599 
SHAKE stats (type/ave/delta) on step 142400
  1 1 6.154e-07
  1 109.47 8.22704e-05
  142400    327.01872    377.03726   -3652.8706   -1023.8871    316.45258       104448     3599 
SHAKE stats (type/ave/delta) on step 142500
  1 1 1.06801e-06
  1 109.47 0.000109106
  142500    320.42147    367.15787   -3672.4978   -1096.5512    153.94011       104448     3599 
SHAKE stats (type/ave/delta) on step 142600
  1 1 6.64778e-07
  1 109.47 7.36854e-05
  142600    319.82104    366.25873    -3709.283   -1138.1634     253.4211       104448     3599 
SHAKE stats (type/ave/delta) on step 142700
  1 1 9.6515e-07
  1 109.47 9.4323e-05
  142700    327.42966    377.65264   -3732.4067   -1100.1195    243.91471       104448     3599 
SHAKE stats (type/ave/delta) on step 142800
  1 1 1.12027e-06
  1 109.47 0.000120836
  142800    331.20605     383.3078    -3694.978   -1032.3315    341.02971       104448     3599 
SHAKE stats (type/ave/delta) on step 142900
  1 1 5.49111e-07
  1 109.47 7.42061e-05
  142900    333.60904    386.90627   -3666.8353   -984.87065    212.72229       104448     3599 
SHAKE stats (type/ave/delta) on step 143000
  1 1 1.63832e-06
  1 109.47 0.000127941
  143000    319.56349    365.87304   -3622.4094   -1053.3603    250.21164       104448     3599 
SHAKE stats (type/ave/delta) on step 143100
  1 1 5.34913e-07
  1 109.47 5.88147e-05
  143100    317.79705    363.22779   -3657.5741   -1102.7259    232.84654       104448     3599 
SHAKE stats (type/ave/delta) on step 143200
  1 1 6.41095e-07
  1 109.47 6.59656e-05
  143200    327.29503    377.45103   -3725.9469   -1094.7421    180.97841       104448     3599 
SHAKE stats (type/ave/delta) on step 143300
  1 1 1.23177e-06
  1 109.47 0.000145606
  143300    323.67871    372.03559   -3744.3095   -1142.1772    246.58048       104448     3599 
SHAKE stats (type/ave/delta) on step 143400
  1 1 6.80061e-07
  1 109.47 6.28447e-05
  143400    316.22755    360.87747   -3761.3598   -1219.1292    142.28646       104448     3599 
SHAKE stats (type/ave/delta) on step 143500
  1 1 1.32143e-06
  1 109.47 0.00015356
  143500    318.74509    364.64749   -3721.4285   -1158.9587    201.18681       104448     3599 
SHAKE stats (type/ave/delta) on step 143600
  1 1 9.51796e-07
  1 109.47 8.44918e-05
  143600    319.19489    365.32107   -3672.3635   -1106.2777    365.10319       104448     3599 
SHAKE stats (type/ave/delta) on step 143700
  1 1 6.39284e-07
  1 109.47 8.3717e-05
  143700    324.24042    372.87675   -3690.5377   -1083.8897    308.05163       104448     3599 
SHAKE stats (type/ave/delta) on step 143800
  1 1 1.11212e-06
  1 109.47 0.000137869
  143800    326.42492    376.14804   -3665.2543   -1041.0445    224.43439       104448     3599 
SHAKE stats (type/ave/delta) on step 143900
  1 1 6.24977e-07
  1 109.47 7.07429e-05
  143900    331.53093    383.79429   -3658.7446   -993.48638    166.69331       104448     3599 
SHAKE stats (type/ave/delta) on step 144000
  1 1 1.46433e-06
  1 109.47 0.000153165
  144000    326.61008    376.42532   -3691.4956   -1065.7973     74.82969       104448     3599 
SHAKE stats (type/ave/delta) on step 144100
  1 1 8.31461e-07
  1 109.47 8.49552e-05
  144100     314.3441      358.057   -3636.3094   -1109.2202    180.99559       104448     3599 
SHAKE stats (type/ave/delta) on step 144200
  1 1 1.02706e-06
  1 109.47 0.000113136
  144200    322.52551    370.30868   -3659.6576   -1066.7961     199.5535       104448     3599 
SHAKE stats (type/ave/delta) on step 144300
  1 1 6.81986e-07
  1 109.47 6.81171e-05
  144300    323.69918    372.06625   -3631.4729   -1029.1759    217.21813       104448     3599 
SHAKE stats (type/ave/delta) on step 144400
  1 1 7.64644e-07
  1 109.47 5.88648e-05
  144400    330.62994    382.44507    -3685.133    -1027.118    187.72831       104448     3599 
SHAKE stats (type/ave/delta) on step 144500
  1 1 1.59145e-06
  1 109.47 0.000147574
  144500    325.72444    375.09907   -3710.7739   -1092.1954    185.67748       104448     3599 
SHAKE stats (type/ave/delta) on step 144600
  1 1 6.85835e-07
  1 109.47 6.02759e-05
  144600    321.50269      368.777   -3747.1159    -1162.477     252.9853       104448     3599 
SHAKE stats (type/ave/delta) on step 144700
  1 1 6.77004e-07
  1 109.47 6.79268e-05
  144700    325.39753    374.60952   -3776.6677   -1160.7174    222.76294       104448     3599 
SHAKE stats (type/ave/delta) on step 144800
  1 1 7.2788e-07
  1 109.47 8.82123e-05
  144800    320.40211    367.12888   -3737.2181   -1161.4271    208.33772       104448     3599 
SHAKE stats (type/ave/delta) on step 144900
  1 1 1.47119e-06
  1 109.47 0.000156615
  144900    329.41344    380.62336   -3758.5274   -1110.2921    358.87579       104448     3599 
SHAKE stats (type/ave/delta) on step 145000
  1 1 6.10944e-07
  1 109.47 5.4314e-05
  145000    330.99767    382.99575   -3715.6413   -1054.6701    434.20119       104448     3599 
SHAKE stats (type/ave/delta) on step 145100
  1 1 1.22008e-06
  1 109.47 7.674e-05
  145100    319.24576    365.39724   -3684.5801   -1118.0853    434.03614       104448     3599 
SHAKE stats (type/ave/delta) on step 145200
  1 1 5.06333e-07
  1 109.47 6.48657e-05
  145200    319.62315    365.96238   -3713.3447    -1143.816    253.02591       104448     3599 
SHAKE stats (type/ave/delta) on step 145300
  1 1 7.66218e-07
  1 109.47 9.75742e-05
  145300    323.34565    371.53683   -3702.7437   -1103.2889    300.12074       104448     3599 
SHAKE stats (type/ave/delta) on step 145400
  1 1 6.95952e-07
  1 109.47 7.17239e-05
  145400    327.93636    378.41143   -3700.8783   -1064.5177    338.60231       104448     3599 
SHAKE stats (type/ave/delta) on step 145500
  1 1 9.51672e-07
  1 109.47 7.79878e-05
  145500    327.40229    377.61166   -3713.2609   -1081.1938    149.24364       104448     3599 
SHAKE stats (type/ave/delta) on step 145600
  1 1 6.52506e-07
  1 109.47 6.09595e-05
  145600    322.26947    369.92526   -3711.8043   -1121.0011    226.56874       104448     3599 
SHAKE stats (type/ave/delta) on step 145700
  1 1 7.98831e-07
  1 109.47 8.37976e-05
  145700    324.58651    373.39502   -3764.0255   -1154.5952     108.2326       104448     3599 
SHAKE stats (type/ave/delta) on step 145800
  1 1 5.96821e-07
  1 109.47 7.012e-05
  145800    321.30481    368.48067   -3769.9183   -1186.8703    165.90022       104448     3599 
SHAKE stats (type/ave/delta) on step 145900
  1 1 7.60399e-07
  1 109.47 0.000108769
  145900    321.37768     368.5898   -3767.9047   -1184.2709     213.1726       104448     3599 
SHAKE stats (type/ave/delta) on step 146000
  1 1 1.3694e-06
  1 109.47 0.000147327
  146000    327.39187    377.59606   -3737.8578   -1105.8744    309.80654       104448     3599 
SHAKE stats (type/ave/delta) on step 146100
  1 1 5.29392e-07
  1 109.47 7.5596e-05
  146100    330.23859    381.85902   -3723.3296   -1068.4607     262.7659       104448     3599 
SHAKE stats (type/ave/delta) on step 146200
  1 1 8.43657e-07
  1 109.47 7.50164e-05
  146200    321.17376    368.28442   -3679.4519   -1097.4575    188.74399       104448     3599 
SHAKE stats (type/ave/delta) on step 146300
  1 1 6.89331e-07
  1 109.47 7.16391e-05
  146300    322.22971    369.86571   -3707.6483   -1117.1649    187.75252       104448     3599 
SHAKE stats (type/ave/delta) on step 146400
  1 1 7.26154e-07
  1 109.47 9.57451e-05
  146400    326.92688    376.89973    -3726.839   -1098.5938     164.5174       104448     3599 
SHAKE stats (type/ave/delta) on step 146500
  1 1 5.30469e-07
  1 109.47 6.50718e-05
  146500    329.62279    380.93686   -3734.8678   -1084.9496    290.71791       104448     3599 
SHAKE stats (type/ave/delta) on step 146600
  1 1 1.32745e-06
  1 109.47 0.000114542
  146600    321.24065    368.38459   -3716.6195   -1134.0873    402.36528       104448     3599 
SHAKE stats (type/ave/delta) on step 146700
  1 1 6.95565e-07
  1 109.47 5.43785e-05
  146700    317.91004    363.39701   -3736.4567   -1180.7001    220.52759       104448     3599 
SHAKE stats (type/ave/delta) on step 146800
  1 1 1.57894e-06
  1 109.47 0.000120092
  146800    320.67893    367.54341   -3726.5943   -1148.5779    130.38608       104448     3599 
SHAKE stats (type/ave/delta) on step 146900
  1 1 7.96914e-07
  1 109.47 0.000114695
  146900    328.08436    378.63306   -3676.6065   -1039.0561    287.15657       104448     3599 
SHAKE stats (type/ave/delta) on step 147000
  1 1 7.62386e-07
  1 109.47 7.21683e-05
  147000    327.51837    377.78549   -3681.4764   -1048.4761    320.09054       104448     3599 
SHAKE stats (type/ave/delta) on step 147100
  1 1 1.45754e-06
  1 109.47 0.000148245
  147100    323.52108    371.79954   -3717.9511    -1117.086    281.35429       104448     3599 
SHAKE stats (type/ave/delta) on step 147200
  1 1 7.63915e-07
  1 109.47 7.47453e-05
  147200    317.90609    363.39108   -3718.1634   -1162.4386    236.44414       104448     3599 
SHAKE stats (type/ave/delta) on step 147300
  1 1 6.39206e-07
  1 109.47 8.18007e-05
  147300     324.0877    372.64806   -3771.1941   -1165.7738    194.71421       104448     3599 
SHAKE stats (type/ave/delta) on step 147400
  1 1 2.50051e-06
  1 109.47 0.000207391
  147400    325.49481    374.75521   -3703.9712   -1087.2388    255.70168       104448     3599 
SHAKE stats (type/ave/delta) on step 147500
  1 1 5.11887e-07
  1 109.47 6.57613e-05
  147500    330.08893    381.63491   -3675.4164   -1021.7508    307.35207       104448     3599 
SHAKE stats (type/ave/delta) on step 147600
  1 1 1.10174e-06
  1 109.47 7.84669e-05
  147600    329.31739    380.47953   -3718.0711    -1070.608    142.20048       104448     3599 
SHAKE stats (type/ave/delta) on step 147700
  1 1 6.81882e-07
  1 109.47 7.13366e-05
  147700    319.88134    366.34902   -3694.7518   -1123.1475    141.83657       104448     3599 
SHAKE stats (type/ave/delta) on step 147800
  1 1 8.20644e-07
  1 109.47 0.000106233
  147800    320.23439    366.87771   -3695.4179   -1120.9753    146.79774       104448     3599 
SHAKE stats (type/ave/delta) on step 147900
  1 1 1.50814e-06
  1 109.47 0.000166011
  147900    332.23513    384.84883   -3706.8576   -1035.9381    276.07777       104448     3599 
SHAKE stats (type/ave/delta) on step 148000
  1 1 7.02262e-07
  1 109.47 6.96204e-05
  148000    331.82867    384.24017   -3669.8461   -1002.1942    301.60842       104448     3599 
SHAKE stats (type/ave/delta) on step 148100
  1 1 8.67028e-07
  1 109.47 6.9535e-05
  148100    330.36145      382.043   -3693.4914   -1037.6348    193.36561       104448     3599 
SHAKE stats (type/ave/delta) on step 148200
  1 1 7.04637e-07
  1 109.47 6.98998e-05
  148200    326.59182    376.39797   -3711.6199   -1086.0684    102.04614       104448     3599 
SHAKE stats (type/ave/delta) on step 148300
  1 1 6.84114e-07
  1 109.47 7.38974e-05
  148300     320.4354    367.17873   -3697.0948   -1121.0362    264.53131       104448     3599 
SHAKE stats (type/ave/delta) on step 148400
  1 1 7.62414e-07
  1 109.47 0.000106434
  148400    323.68682    372.04773   -3715.0149   -1112.8174    257.73694       104448     3599 
SHAKE stats (type/ave/delta) on step 148500
  1 1 7.60136e-07
  1 109.47 7.55823e-05
  148500    328.02693    378.54706   -3718.1891   -1081.1003    257.55612       104448     3599 
SHAKE stats (type/ave/delta) on step 148600
  1 1 7.81183e-07
  1 109.47 7.69277e-05
  148600    328.73078    379.60107   -3736.3958   -1093.6486    220.83273       104448     3599 
SHAKE stats (type/ave/delta) on step 148700
  1 1 6.84248e-07
  1 109.47 8.11306e-05
  148700     319.8699    366.33189   -3706.9996   -1135.4872     267.9618       104448     3599 
SHAKE stats (type/ave/delta) on step 148800
  1 1 7.57429e-07
  1 109.47 7.60952e-05
  148800    316.86872    361.83762    -3703.968   -1156.5829    423.29487       104448     3599 
SHAKE stats (type/ave/delta) on step 148900
  1 1 8.2791e-07
  1 109.47 9.54038e-05
  148900    323.14903     371.2424   -3752.1468   -1154.2726    291.43796       104448     3599 
SHAKE stats (type/ave/delta) on step 149000
  1 1 1.20361e-06
  1 109.47 0.000144054
  149000    324.90057    373.86532   -3695.1849   -1083.2298    278.82948       104448     3599 
SHAKE stats (type/ave/delta) on step 149100
  1 1 5.76513e-07
  1 109.47 6.15168e-05
  149100    335.29919    389.43727   -3722.9356   -1027.3834    138.55698       104448     3599 
SHAKE stats (type/ave/delta) on step 149200
  1 1 1.01947e-06
  1 109.47 8.89596e-05
  149200    327.84745    378.27828   -3702.4464   -1066.8005    323.71152       104448     3599 
SHAKE stats (type/ave/delta) on step 149300
  1 1 8.36566e-07
  1 109.47 7.31995e-05
  149300    325.17652    374.27856   -3739.1276    -1124.954    284.51616       104448     3599 
SHAKE stats (type/ave/delta) on step 149400
  1 1 5.55725e-07
  1 109.47 8.02425e-05
  149400    317.20054    362.33452   -3709.2724   -1159.2197     266.3002       104448     3599 
SHAKE stats (type/ave/delta) on step 149500
  1 1 8.70154e-07
  1 109.47 9.1925e-05
  149500    321.30088    368.47479   -3721.9568   -1138.9404    287.74865       104448     3599 
SHAKE stats (type/ave/delta) on step 149600
  1 1 6.45799e-07
  1 109.47 6.45957e-05
  149600    324.90107    373.86607   -3720.8929   -1108.9338    237.64075       104448     3599 
SHAKE stats (type/ave/delta) on step 149700
  1 1 6.57794e-07
  1 109.47 9.18307e-05
  149700    326.96041    376.94995   -3714.4145   -1085.8998      207.405       104448     3599 
SHAKE stats (type/ave/delta) on step 149800
  1 1 6.7692e-07
  1 109.47 7.67719e-05
  149800    325.66264    375.00654     -3698.83   -1080.7483    345.95765       104448     3599 
SHAKE stats (type/ave/delta) on step 149900
  1 1 1.08767e-06
  1 109.47 0.000101684
  149900    320.39539    367.11882   -3729.1315   -1153.3946    333.05921       104448     3599 
SHAKE stats (type/ave/delta) on step 150000
  1 1 7.40094e-07
  1 109.47 8.40041e-05
  150000     320.4855    367.25376   -3776.0753    -1199.614    251.36758       104448     3599 
Loop time of 541.208 on 4 procs for 50000 steps with 3599 atoms

Performance: 7.982 ns/day, 3.007 hours/ns, 92.386 timesteps/s
97.7% CPU use with 4 MPI tasks x no OpenMP threads

MPI task timing breakdown:
Section |  min time  |  avg time  |  max time  |%varavg| %total
---------------------------------------------------------------
Pair    | 85.19      | 191.44     | 345.29     | 735.6 | 35.37
Bond    | 0.084807   | 0.089602   | 0.094949   |   1.4 |  0.02
Kspace  | 110.87     | 258.87     | 362.37     | 609.2 | 47.83
Neigh   | 59.396     | 59.426     | 59.474     |   0.4 | 10.98
Comm    | 10.11      | 15.191     | 18.822     |  88.2 |  2.81
Output  | 2.4965     | 2.5004     | 2.5119     |   0.4 |  0.46
Modify  | 11.235     | 11.895     | 12.292     |  11.5 |  2.20
Other   |            | 1.792      |            |       |  0.33

Nlocal:    899.75 ave 1531 max 405 min
Histogram: 1 1 0 0 0 0 1 0 0 1
Nghost:    6265.75 ave 8690 max 3635 min
Histogram: 1 0 0 0 1 0 1 0 0 1
Neighs:    244239 ave 466188 max 47143 min
Histogram: 1 0 1 0 0 0 1 0 0 1

Total # of neighbors = 976956
Ave neighs/atom = 271.452
Ave special neighs/atom = 1.50208
Neighbor list builds = 2923
Dangerous builds = 0
unfix 3

#fix 1 mobile nvt temp 298.0 298.0 100.0
# run 1000000  # 1ns
#unfix 1

#rdfの計算
#compute	myRDF oxy rdf 50 cutoff 13.0
#fix		fout2 oxy ave/time 1000 10 10000 c_myRDF[*] file tmp.rdf mode vector

#fix 3 mobile nve
# run 10000
#unfix 3

=======
Pair    | 0.46668    | 28.244     | 78.915     | 598.0 | 21.60
Bond    | 0.01151    | 0.014261   | 0.017888   |   2.0 |  0.01
Kspace  | 37.517     | 86.118     | 111.64     | 323.5 | 65.87
Neigh   | 9.3517     | 9.3577     | 9.3659     |   0.2 |  7.16
Comm    | 1.8689     | 3.8471     | 5.9062     | 100.7 |  2.94
Output  | 0.57892    | 0.58635    | 0.58958    |   0.6 |  0.45
Modify  | 1.2937     | 1.6356     | 2.2753     |  29.6 |  1.25
Other   |            | 0.9433     |            |       |  0.72

Nlocal:    1001.25 ave 1985 max 18 min
Histogram: 2 0 0 0 0 0 0 0 0 2
Nghost:    4691.75 ave 8327 max 2085 min
Histogram: 1 0 0 2 0 0 0 0 0 1
Neighs:    185695 ave 525863 max 81 min
Histogram: 2 0 0 0 1 0 0 0 0 1

Total # of neighbors = 742780
Ave neighs/atom = 185.463
Ave special neighs/atom = 1.32884
Neighbor list builds = 519
Dangerous builds = 0
unfix 3

>>>>>>> 470a4b6fcba75a8582aa87016a1e1942d472a80a
write_restart   system.restart
PPPM initialization ...
  using 12-bit tables for long-range coulomb (src/kspace.cpp:332)
WARNING: For better accuracy use 'pair_modify table 0' (src/kspace.cpp:353)
  G vector (1/distance) = 0.29
<<<<<<< HEAD
  grid = 25 25 60
  stencil order = 5
  estimated absolute RMS force accuracy = 0.00244257
  estimated relative force accuracy = 7.35573e-06
  using double precision FFTW3
  3d grid and FFT values/proc = 22528 9375
=======
  grid = 32 32 75
  stencil order = 5
  estimated absolute RMS force accuracy = 0.00210163
  estimated relative force accuracy = 6.329e-06
  using double precision FFTW3
  3d grid and FFT values/proc = 38025 19456
>>>>>>> 470a4b6fcba75a8582aa87016a1e1942d472a80a
WARNING: Neighbor exclusions used with KSpace solver may give inconsistent Coulombic energies (src/neighbor.cpp:486)


# ----------------- Run Section -----------------

# The lines above define the system you want to simulate.
# What you do next is up to you.
# Typically a user would minimize and equilibrate
# the system using commands similar to the following:
#  ----   examples   ----
#
#  -- minimize --
# minimize 1.0e-5 1.0e-7 1000 10000
# (Note: Some fixes, for example "shake", interfere with the minimize command,
#        You can use the "unfix" command to disable them before minimization.)
#  -- declare time step for normal MD --
# timestep 1.0
#  -- run at constant pressure (Nose-Hoover)--
# fix   fxnpt all npt temp 300.0 300.0 100.0 iso 1.0 1.0 1000.0 drag 1.0
#  -- ALTERNATELY, run at constant volume (Nose-Hoover) --
# fix   fxnvt all nvt temp 300.0 300.0 500.0 tchain 1
#  -- ALTERNATELY, run at constant volume using Langevin dynamics. --
#  -- (This is good for sparse CG polymers in implicit solvent.)   --
# fix fxLAN all langevin 300.0 300.0 5000 48279
# fix fxNVE all nve  #(<--needed by fix langevin)
#  -- Now, finally run the simulation --
# run   50000
#  ---- (end of examples) ----

<<<<<<< HEAD
Total wall time: 0:31:38
=======
Total wall time: 0:07:38
>>>>>>> 470a4b6fcba75a8582aa87016a1e1942d472a80a
