LAMMPS Description

     3000  atoms
     2000  bonds
     1000  angles
     0  dihedrals
     0  impropers

     3  atom types
     1  bond types
     1  angle types

  -1.0 31.0 xlo xhi
  -1.0 31.0 ylo yhi
  -1.0 101.0 zlo zhi

Masses

1 1.0080  # H
2 15.9994  # O
3 12.0107  # C

Atoms  # full

1 1 1 0.4238 3.3165 2.5 11.5773
2 1 1 0.4238 1.6835 2.5 11.5773
3 1 2 -0.8476 2.5 2.5 11.0
4 2 1 0.4238 6.3165 2.5 11.5773
5 2 1 0.4238 4.6835 2.5 11.5773
6 2 2 -0.8476 5.5 2.5 11.0
7 3 1 0.4238 9.3165 2.5 11.5773
8 3 1 0.4238 7.6835 2.5 11.5773
9 3 2 -0.8476 8.5 2.5 11.0
10 4 1 0.4238 12.3165 2.5 11.5773
11 4 1 0.4238 10.6835 2.5 11.5773
12 4 2 -0.8476 11.5 2.5 11.0
13 5 1 0.4238 15.3165 2.5 11.5773
14 5 1 0.4238 13.6835 2.5 11.5773
15 5 2 -0.8476 14.5 2.5 11.0
16 6 1 0.4238 18.3165 2.5 11.5773
17 6 1 0.4238 16.6835 2.5 11.5773
18 6 2 -0.8476 17.5 2.5 11.0
19 7 1 0.4238 21.3165 2.5 11.5773
20 7 1 0.4238 19.6835 2.5 11.5773
21 7 2 -0.8476 20.5 2.5 11.0
22 8 1 0.4238 24.3165 2.5 11.5773
23 8 1 0.4238 22.6835 2.5 11.5773
24 8 2 -0.8476 23.5 2.5 11.0
25 9 1 0.4238 27.3165 2.5 11.5773
26 9 1 0.4238 25.6835 2.5 11.5773
27 9 2 -0.8476 26.5 2.5 11.0
28 10 1 0.4238 30.3165 2.5 11.5773
29 10 1 0.4238 28.6835 2.5 11.5773
30 10 2 -0.8476 29.5 2.5 11.0
31 11 1 0.4238 3.3165 5.5 11.5773
32 11 1 0.4238 1.6835 5.5 11.5773
33 11 2 -0.8476 2.5 5.5 11.0
34 12 1 0.4238 6.3165 5.5 11.5773
35 12 1 0.4238 4.6835 5.5 11.5773
36 12 2 -0.8476 5.5 5.5 11.0
37 13 1 0.4238 9.3165 5.5 11.5773
38 13 1 0.4238 7.6835 5.5 11.5773
39 13 2 -0.8476 8.5 5.5 11.0
40 14 1 0.4238 12.3165 5.5 11.5773
41 14 1 0.4238 10.6835 5.5 11.5773
42 14 2 -0.8476 11.5 5.5 11.0
43 15 1 0.4238 15.3165 5.5 11.5773
44 15 1 0.4238 13.6835 5.5 11.5773
45 15 2 -0.8476 14.5 5.5 11.0
46 16 1 0.4238 18.3165 5.5 11.5773
47 16 1 0.4238 16.6835 5.5 11.5773
48 16 2 -0.8476 17.5 5.5 11.0
49 17 1 0.4238 21.3165 5.5 11.5773
50 17 1 0.4238 19.6835 5.5 11.5773
51 17 2 -0.8476 20.5 5.5 11.0
52 18 1 0.4238 24.3165 5.5 11.5773
53 18 1 0.4238 22.6835 5.5 11.5773
54 18 2 -0.8476 23.5 5.5 11.0
55 19 1 0.4238 27.3165 5.5 11.5773
56 19 1 0.4238 25.6835 5.5 11.5773
57 19 2 -0.8476 26.5 5.5 11.0
58 20 1 0.4238 30.3165 5.5 11.5773
59 20 1 0.4238 28.6835 5.5 11.5773
60 20 2 -0.8476 29.5 5.5 11.0
61 21 1 0.4238 3.3165 8.5 11.5773
62 21 1 0.4238 1.6835 8.5 11.5773
63 21 2 -0.8476 2.5 8.5 11.0
64 22 1 0.4238 6.3165 8.5 11.5773
65 22 1 0.4238 4.6835 8.5 11.5773
66 22 2 -0.8476 5.5 8.5 11.0
67 23 1 0.4238 9.3165 8.5 11.5773
68 23 1 0.4238 7.6835 8.5 11.5773
69 23 2 -0.8476 8.5 8.5 11.0
70 24 1 0.4238 12.3165 8.5 11.5773
71 24 1 0.4238 10.6835 8.5 11.5773
72 24 2 -0.8476 11.5 8.5 11.0
73 25 1 0.4238 15.3165 8.5 11.5773
74 25 1 0.4238 13.6835 8.5 11.5773
75 25 2 -0.8476 14.5 8.5 11.0
76 26 1 0.4238 18.3165 8.5 11.5773
77 26 1 0.4238 16.6835 8.5 11.5773
78 26 2 -0.8476 17.5 8.5 11.0
79 27 1 0.4238 21.3165 8.5 11.5773
80 27 1 0.4238 19.6835 8.5 11.5773
81 27 2 -0.8476 20.5 8.5 11.0
82 28 1 0.4238 24.3165 8.5 11.5773
83 28 1 0.4238 22.6835 8.5 11.5773
84 28 2 -0.8476 23.5 8.5 11.0
85 29 1 0.4238 27.3165 8.5 11.5773
86 29 1 0.4238 25.6835 8.5 11.5773
87 29 2 -0.8476 26.5 8.5 11.0
88 30 1 0.4238 30.3165 8.5 11.5773
89 30 1 0.4238 28.6835 8.5 11.5773
90 30 2 -0.8476 29.5 8.5 11.0
91 31 1 0.4238 3.3165 11.5 11.5773
92 31 1 0.4238 1.6835 11.5 11.5773
93 31 2 -0.8476 2.5 11.5 11.0
94 32 1 0.4238 6.3165 11.5 11.5773
95 32 1 0.4238 4.6835 11.5 11.5773
96 32 2 -0.8476 5.5 11.5 11.0
97 33 1 0.4238 9.3165 11.5 11.5773
98 33 1 0.4238 7.6835 11.5 11.5773
99 33 2 -0.8476 8.5 11.5 11.0
100 34 1 0.4238 12.3165 11.5 11.5773
101 34 1 0.4238 10.6835 11.5 11.5773
102 34 2 -0.8476 11.5 11.5 11.0
103 35 1 0.4238 15.3165 11.5 11.5773
104 35 1 0.4238 13.6835 11.5 11.5773
105 35 2 -0.8476 14.5 11.5 11.0
106 36 1 0.4238 18.3165 11.5 11.5773
107 36 1 0.4238 16.6835 11.5 11.5773
108 36 2 -0.8476 17.5 11.5 11.0
109 37 1 0.4238 21.3165 11.5 11.5773
110 37 1 0.4238 19.6835 11.5 11.5773
111 37 2 -0.8476 20.5 11.5 11.0
112 38 1 0.4238 24.3165 11.5 11.5773
113 38 1 0.4238 22.6835 11.5 11.5773
114 38 2 -0.8476 23.5 11.5 11.0
115 39 1 0.4238 27.3165 11.5 11.5773
116 39 1 0.4238 25.6835 11.5 11.5773
117 39 2 -0.8476 26.5 11.5 11.0
118 40 1 0.4238 30.3165 11.5 11.5773
119 40 1 0.4238 28.6835 11.5 11.5773
120 40 2 -0.8476 29.5 11.5 11.0
121 41 1 0.4238 3.3165 14.5 11.5773
122 41 1 0.4238 1.6835 14.5 11.5773
123 41 2 -0.8476 2.5 14.5 11.0
124 42 1 0.4238 6.3165 14.5 11.5773
125 42 1 0.4238 4.6835 14.5 11.5773
126 42 2 -0.8476 5.5 14.5 11.0
127 43 1 0.4238 9.3165 14.5 11.5773
128 43 1 0.4238 7.6835 14.5 11.5773
129 43 2 -0.8476 8.5 14.5 11.0
130 44 1 0.4238 12.3165 14.5 11.5773
131 44 1 0.4238 10.6835 14.5 11.5773
132 44 2 -0.8476 11.5 14.5 11.0
133 45 1 0.4238 15.3165 14.5 11.5773
134 45 1 0.4238 13.6835 14.5 11.5773
135 45 2 -0.8476 14.5 14.5 11.0
136 46 1 0.4238 18.3165 14.5 11.5773
137 46 1 0.4238 16.6835 14.5 11.5773
138 46 2 -0.8476 17.5 14.5 11.0
139 47 1 0.4238 21.3165 14.5 11.5773
140 47 1 0.4238 19.6835 14.5 11.5773
141 47 2 -0.8476 20.5 14.5 11.0
142 48 1 0.4238 24.3165 14.5 11.5773
143 48 1 0.4238 22.6835 14.5 11.5773
144 48 2 -0.8476 23.5 14.5 11.0
145 49 1 0.4238 27.3165 14.5 11.5773
146 49 1 0.4238 25.6835 14.5 11.5773
147 49 2 -0.8476 26.5 14.5 11.0
148 50 1 0.4238 30.3165 14.5 11.5773
149 50 1 0.4238 28.6835 14.5 11.5773
150 50 2 -0.8476 29.5 14.5 11.0
151 51 1 0.4238 3.3165 17.5 11.5773
152 51 1 0.4238 1.6835 17.5 11.5773
153 51 2 -0.8476 2.5 17.5 11.0
154 52 1 0.4238 6.3165 17.5 11.5773
155 52 1 0.4238 4.6835 17.5 11.5773
156 52 2 -0.8476 5.5 17.5 11.0
157 53 1 0.4238 9.3165 17.5 11.5773
158 53 1 0.4238 7.6835 17.5 11.5773
159 53 2 -0.8476 8.5 17.5 11.0
160 54 1 0.4238 12.3165 17.5 11.5773
161 54 1 0.4238 10.6835 17.5 11.5773
162 54 2 -0.8476 11.5 17.5 11.0
163 55 1 0.4238 15.3165 17.5 11.5773
164 55 1 0.4238 13.6835 17.5 11.5773
165 55 2 -0.8476 14.5 17.5 11.0
166 56 1 0.4238 18.3165 17.5 11.5773
167 56 1 0.4238 16.6835 17.5 11.5773
168 56 2 -0.8476 17.5 17.5 11.0
169 57 1 0.4238 21.3165 17.5 11.5773
170 57 1 0.4238 19.6835 17.5 11.5773
171 57 2 -0.8476 20.5 17.5 11.0
172 58 1 0.4238 24.3165 17.5 11.5773
173 58 1 0.4238 22.6835 17.5 11.5773
174 58 2 -0.8476 23.5 17.5 11.0
175 59 1 0.4238 27.3165 17.5 11.5773
176 59 1 0.4238 25.6835 17.5 11.5773
177 59 2 -0.8476 26.5 17.5 11.0
178 60 1 0.4238 30.3165 17.5 11.5773
179 60 1 0.4238 28.6835 17.5 11.5773
180 60 2 -0.8476 29.5 17.5 11.0
181 61 1 0.4238 3.3165 20.5 11.5773
182 61 1 0.4238 1.6835 20.5 11.5773
183 61 2 -0.8476 2.5 20.5 11.0
184 62 1 0.4238 6.3165 20.5 11.5773
185 62 1 0.4238 4.6835 20.5 11.5773
186 62 2 -0.8476 5.5 20.5 11.0
187 63 1 0.4238 9.3165 20.5 11.5773
188 63 1 0.4238 7.6835 20.5 11.5773
189 63 2 -0.8476 8.5 20.5 11.0
190 64 1 0.4238 12.3165 20.5 11.5773
191 64 1 0.4238 10.6835 20.5 11.5773
192 64 2 -0.8476 11.5 20.5 11.0
193 65 1 0.4238 15.3165 20.5 11.5773
194 65 1 0.4238 13.6835 20.5 11.5773
195 65 2 -0.8476 14.5 20.5 11.0
196 66 1 0.4238 18.3165 20.5 11.5773
197 66 1 0.4238 16.6835 20.5 11.5773
198 66 2 -0.8476 17.5 20.5 11.0
199 67 1 0.4238 21.3165 20.5 11.5773
200 67 1 0.4238 19.6835 20.5 11.5773
201 67 2 -0.8476 20.5 20.5 11.0
202 68 1 0.4238 24.3165 20.5 11.5773
203 68 1 0.4238 22.6835 20.5 11.5773
204 68 2 -0.8476 23.5 20.5 11.0
205 69 1 0.4238 27.3165 20.5 11.5773
206 69 1 0.4238 25.6835 20.5 11.5773
207 69 2 -0.8476 26.5 20.5 11.0
208 70 1 0.4238 30.3165 20.5 11.5773
209 70 1 0.4238 28.6835 20.5 11.5773
210 70 2 -0.8476 29.5 20.5 11.0
211 71 1 0.4238 3.3165 23.5 11.5773
212 71 1 0.4238 1.6835 23.5 11.5773
213 71 2 -0.8476 2.5 23.5 11.0
214 72 1 0.4238 6.3165 23.5 11.5773
215 72 1 0.4238 4.6835 23.5 11.5773
216 72 2 -0.8476 5.5 23.5 11.0
217 73 1 0.4238 9.3165 23.5 11.5773
218 73 1 0.4238 7.6835 23.5 11.5773
219 73 2 -0.8476 8.5 23.5 11.0
220 74 1 0.4238 12.3165 23.5 11.5773
221 74 1 0.4238 10.6835 23.5 11.5773
222 74 2 -0.8476 11.5 23.5 11.0
223 75 1 0.4238 15.3165 23.5 11.5773
224 75 1 0.4238 13.6835 23.5 11.5773
225 75 2 -0.8476 14.5 23.5 11.0
226 76 1 0.4238 18.3165 23.5 11.5773
227 76 1 0.4238 16.6835 23.5 11.5773
228 76 2 -0.8476 17.5 23.5 11.0
229 77 1 0.4238 21.3165 23.5 11.5773
230 77 1 0.4238 19.6835 23.5 11.5773
231 77 2 -0.8476 20.5 23.5 11.0
232 78 1 0.4238 24.3165 23.5 11.5773
233 78 1 0.4238 22.6835 23.5 11.5773
234 78 2 -0.8476 23.5 23.5 11.0
235 79 1 0.4238 27.3165 23.5 11.5773
236 79 1 0.4238 25.6835 23.5 11.5773
237 79 2 -0.8476 26.5 23.5 11.0
238 80 1 0.4238 30.3165 23.5 11.5773
239 80 1 0.4238 28.6835 23.5 11.5773
240 80 2 -0.8476 29.5 23.5 11.0
241 81 1 0.4238 3.3165 26.5 11.5773
242 81 1 0.4238 1.6835 26.5 11.5773
243 81 2 -0.8476 2.5 26.5 11.0
244 82 1 0.4238 6.3165 26.5 11.5773
245 82 1 0.4238 4.6835 26.5 11.5773
246 82 2 -0.8476 5.5 26.5 11.0
247 83 1 0.4238 9.3165 26.5 11.5773
248 83 1 0.4238 7.6835 26.5 11.5773
249 83 2 -0.8476 8.5 26.5 11.0
250 84 1 0.4238 12.3165 26.5 11.5773
251 84 1 0.4238 10.6835 26.5 11.5773
252 84 2 -0.8476 11.5 26.5 11.0
253 85 1 0.4238 15.3165 26.5 11.5773
254 85 1 0.4238 13.6835 26.5 11.5773
255 85 2 -0.8476 14.5 26.5 11.0
256 86 1 0.4238 18.3165 26.5 11.5773
257 86 1 0.4238 16.6835 26.5 11.5773
258 86 2 -0.8476 17.5 26.5 11.0
259 87 1 0.4238 21.3165 26.5 11.5773
260 87 1 0.4238 19.6835 26.5 11.5773
261 87 2 -0.8476 20.5 26.5 11.0
262 88 1 0.4238 24.3165 26.5 11.5773
263 88 1 0.4238 22.6835 26.5 11.5773
264 88 2 -0.8476 23.5 26.5 11.0
265 89 1 0.4238 27.3165 26.5 11.5773
266 89 1 0.4238 25.6835 26.5 11.5773
267 89 2 -0.8476 26.5 26.5 11.0
268 90 1 0.4238 30.3165 26.5 11.5773
269 90 1 0.4238 28.6835 26.5 11.5773
270 90 2 -0.8476 29.5 26.5 11.0
271 91 1 0.4238 3.3165 29.5 11.5773
272 91 1 0.4238 1.6835 29.5 11.5773
273 91 2 -0.8476 2.5 29.5 11.0
274 92 1 0.4238 6.3165 29.5 11.5773
275 92 1 0.4238 4.6835 29.5 11.5773
276 92 2 -0.8476 5.5 29.5 11.0
277 93 1 0.4238 9.3165 29.5 11.5773
278 93 1 0.4238 7.6835 29.5 11.5773
279 93 2 -0.8476 8.5 29.5 11.0
280 94 1 0.4238 12.3165 29.5 11.5773
281 94 1 0.4238 10.6835 29.5 11.5773
282 94 2 -0.8476 11.5 29.5 11.0
283 95 1 0.4238 15.3165 29.5 11.5773
284 95 1 0.4238 13.6835 29.5 11.5773
285 95 2 -0.8476 14.5 29.5 11.0
286 96 1 0.4238 18.3165 29.5 11.5773
287 96 1 0.4238 16.6835 29.5 11.5773
288 96 2 -0.8476 17.5 29.5 11.0
289 97 1 0.4238 21.3165 29.5 11.5773
290 97 1 0.4238 19.6835 29.5 11.5773
291 97 2 -0.8476 20.5 29.5 11.0
292 98 1 0.4238 24.3165 29.5 11.5773
293 98 1 0.4238 22.6835 29.5 11.5773
294 98 2 -0.8476 23.5 29.5 11.0
295 99 1 0.4238 27.3165 29.5 11.5773
296 99 1 0.4238 25.6835 29.5 11.5773
297 99 2 -0.8476 26.5 29.5 11.0
298 100 1 0.4238 30.3165 29.5 11.5773
299 100 1 0.4238 28.6835 29.5 11.5773
300 100 2 -0.8476 29.5 29.5 11.0
301 101 1 0.4238 3.3165 2.5 14.5773
302 101 1 0.4238 1.6835 2.5 14.5773
303 101 2 -0.8476 2.5 2.5 14.0
304 102 1 0.4238 6.3165 2.5 14.5773
305 102 1 0.4238 4.6835 2.5 14.5773
306 102 2 -0.8476 5.5 2.5 14.0
307 103 1 0.4238 9.3165 2.5 14.5773
308 103 1 0.4238 7.6835 2.5 14.5773
309 103 2 -0.8476 8.5 2.5 14.0
310 104 1 0.4238 12.3165 2.5 14.5773
311 104 1 0.4238 10.6835 2.5 14.5773
312 104 2 -0.8476 11.5 2.5 14.0
313 105 1 0.4238 15.3165 2.5 14.5773
314 105 1 0.4238 13.6835 2.5 14.5773
315 105 2 -0.8476 14.5 2.5 14.0
316 106 1 0.4238 18.3165 2.5 14.5773
317 106 1 0.4238 16.6835 2.5 14.5773
318 106 2 -0.8476 17.5 2.5 14.0
319 107 1 0.4238 21.3165 2.5 14.5773
320 107 1 0.4238 19.6835 2.5 14.5773
321 107 2 -0.8476 20.5 2.5 14.0
322 108 1 0.4238 24.3165 2.5 14.5773
323 108 1 0.4238 22.6835 2.5 14.5773
324 108 2 -0.8476 23.5 2.5 14.0
325 109 1 0.4238 27.3165 2.5 14.5773
326 109 1 0.4238 25.6835 2.5 14.5773
327 109 2 -0.8476 26.5 2.5 14.0
328 110 1 0.4238 30.3165 2.5 14.5773
329 110 1 0.4238 28.6835 2.5 14.5773
330 110 2 -0.8476 29.5 2.5 14.0
331 111 1 0.4238 3.3165 5.5 14.5773
332 111 1 0.4238 1.6835 5.5 14.5773
333 111 2 -0.8476 2.5 5.5 14.0
334 112 1 0.4238 6.3165 5.5 14.5773
335 112 1 0.4238 4.6835 5.5 14.5773
336 112 2 -0.8476 5.5 5.5 14.0
337 113 1 0.4238 9.3165 5.5 14.5773
338 113 1 0.4238 7.6835 5.5 14.5773
339 113 2 -0.8476 8.5 5.5 14.0
340 114 1 0.4238 12.3165 5.5 14.5773
341 114 1 0.4238 10.6835 5.5 14.5773
342 114 2 -0.8476 11.5 5.5 14.0
343 115 1 0.4238 15.3165 5.5 14.5773
344 115 1 0.4238 13.6835 5.5 14.5773
345 115 2 -0.8476 14.5 5.5 14.0
346 116 1 0.4238 18.3165 5.5 14.5773
347 116 1 0.4238 16.6835 5.5 14.5773
348 116 2 -0.8476 17.5 5.5 14.0
349 117 1 0.4238 21.3165 5.5 14.5773
350 117 1 0.4238 19.6835 5.5 14.5773
351 117 2 -0.8476 20.5 5.5 14.0
352 118 1 0.4238 24.3165 5.5 14.5773
353 118 1 0.4238 22.6835 5.5 14.5773
354 118 2 -0.8476 23.5 5.5 14.0
355 119 1 0.4238 27.3165 5.5 14.5773
356 119 1 0.4238 25.6835 5.5 14.5773
357 119 2 -0.8476 26.5 5.5 14.0
358 120 1 0.4238 30.3165 5.5 14.5773
359 120 1 0.4238 28.6835 5.5 14.5773
360 120 2 -0.8476 29.5 5.5 14.0
361 121 1 0.4238 3.3165 8.5 14.5773
362 121 1 0.4238 1.6835 8.5 14.5773
363 121 2 -0.8476 2.5 8.5 14.0
364 122 1 0.4238 6.3165 8.5 14.5773
365 122 1 0.4238 4.6835 8.5 14.5773
366 122 2 -0.8476 5.5 8.5 14.0
367 123 1 0.4238 9.3165 8.5 14.5773
368 123 1 0.4238 7.6835 8.5 14.5773
369 123 2 -0.8476 8.5 8.5 14.0
370 124 1 0.4238 12.3165 8.5 14.5773
371 124 1 0.4238 10.6835 8.5 14.5773
372 124 2 -0.8476 11.5 8.5 14.0
373 125 1 0.4238 15.3165 8.5 14.5773
374 125 1 0.4238 13.6835 8.5 14.5773
375 125 2 -0.8476 14.5 8.5 14.0
376 126 1 0.4238 18.3165 8.5 14.5773
377 126 1 0.4238 16.6835 8.5 14.5773
378 126 2 -0.8476 17.5 8.5 14.0
379 127 1 0.4238 21.3165 8.5 14.5773
380 127 1 0.4238 19.6835 8.5 14.5773
381 127 2 -0.8476 20.5 8.5 14.0
382 128 1 0.4238 24.3165 8.5 14.5773
383 128 1 0.4238 22.6835 8.5 14.5773
384 128 2 -0.8476 23.5 8.5 14.0
385 129 1 0.4238 27.3165 8.5 14.5773
386 129 1 0.4238 25.6835 8.5 14.5773
387 129 2 -0.8476 26.5 8.5 14.0
388 130 1 0.4238 30.3165 8.5 14.5773
389 130 1 0.4238 28.6835 8.5 14.5773
390 130 2 -0.8476 29.5 8.5 14.0
391 131 1 0.4238 3.3165 11.5 14.5773
392 131 1 0.4238 1.6835 11.5 14.5773
393 131 2 -0.8476 2.5 11.5 14.0
394 132 1 0.4238 6.3165 11.5 14.5773
395 132 1 0.4238 4.6835 11.5 14.5773
396 132 2 -0.8476 5.5 11.5 14.0
397 133 1 0.4238 9.3165 11.5 14.5773
398 133 1 0.4238 7.6835 11.5 14.5773
399 133 2 -0.8476 8.5 11.5 14.0
400 134 1 0.4238 12.3165 11.5 14.5773
401 134 1 0.4238 10.6835 11.5 14.5773
402 134 2 -0.8476 11.5 11.5 14.0
403 135 1 0.4238 15.3165 11.5 14.5773
404 135 1 0.4238 13.6835 11.5 14.5773
405 135 2 -0.8476 14.5 11.5 14.0
406 136 1 0.4238 18.3165 11.5 14.5773
407 136 1 0.4238 16.6835 11.5 14.5773
408 136 2 -0.8476 17.5 11.5 14.0
409 137 1 0.4238 21.3165 11.5 14.5773
410 137 1 0.4238 19.6835 11.5 14.5773
411 137 2 -0.8476 20.5 11.5 14.0
412 138 1 0.4238 24.3165 11.5 14.5773
413 138 1 0.4238 22.6835 11.5 14.5773
414 138 2 -0.8476 23.5 11.5 14.0
415 139 1 0.4238 27.3165 11.5 14.5773
416 139 1 0.4238 25.6835 11.5 14.5773
417 139 2 -0.8476 26.5 11.5 14.0
418 140 1 0.4238 30.3165 11.5 14.5773
419 140 1 0.4238 28.6835 11.5 14.5773
420 140 2 -0.8476 29.5 11.5 14.0
421 141 1 0.4238 3.3165 14.5 14.5773
422 141 1 0.4238 1.6835 14.5 14.5773
423 141 2 -0.8476 2.5 14.5 14.0
424 142 1 0.4238 6.3165 14.5 14.5773
425 142 1 0.4238 4.6835 14.5 14.5773
426 142 2 -0.8476 5.5 14.5 14.0
427 143 1 0.4238 9.3165 14.5 14.5773
428 143 1 0.4238 7.6835 14.5 14.5773
429 143 2 -0.8476 8.5 14.5 14.0
430 144 1 0.4238 12.3165 14.5 14.5773
431 144 1 0.4238 10.6835 14.5 14.5773
432 144 2 -0.8476 11.5 14.5 14.0
433 145 1 0.4238 15.3165 14.5 14.5773
434 145 1 0.4238 13.6835 14.5 14.5773
435 145 2 -0.8476 14.5 14.5 14.0
436 146 1 0.4238 18.3165 14.5 14.5773
437 146 1 0.4238 16.6835 14.5 14.5773
438 146 2 -0.8476 17.5 14.5 14.0
439 147 1 0.4238 21.3165 14.5 14.5773
440 147 1 0.4238 19.6835 14.5 14.5773
441 147 2 -0.8476 20.5 14.5 14.0
442 148 1 0.4238 24.3165 14.5 14.5773
443 148 1 0.4238 22.6835 14.5 14.5773
444 148 2 -0.8476 23.5 14.5 14.0
445 149 1 0.4238 27.3165 14.5 14.5773
446 149 1 0.4238 25.6835 14.5 14.5773
447 149 2 -0.8476 26.5 14.5 14.0
448 150 1 0.4238 30.3165 14.5 14.5773
449 150 1 0.4238 28.6835 14.5 14.5773
450 150 2 -0.8476 29.5 14.5 14.0
451 151 1 0.4238 3.3165 17.5 14.5773
452 151 1 0.4238 1.6835 17.5 14.5773
453 151 2 -0.8476 2.5 17.5 14.0
454 152 1 0.4238 6.3165 17.5 14.5773
455 152 1 0.4238 4.6835 17.5 14.5773
456 152 2 -0.8476 5.5 17.5 14.0
457 153 1 0.4238 9.3165 17.5 14.5773
458 153 1 0.4238 7.6835 17.5 14.5773
459 153 2 -0.8476 8.5 17.5 14.0
460 154 1 0.4238 12.3165 17.5 14.5773
461 154 1 0.4238 10.6835 17.5 14.5773
462 154 2 -0.8476 11.5 17.5 14.0
463 155 1 0.4238 15.3165 17.5 14.5773
464 155 1 0.4238 13.6835 17.5 14.5773
465 155 2 -0.8476 14.5 17.5 14.0
466 156 1 0.4238 18.3165 17.5 14.5773
467 156 1 0.4238 16.6835 17.5 14.5773
468 156 2 -0.8476 17.5 17.5 14.0
469 157 1 0.4238 21.3165 17.5 14.5773
470 157 1 0.4238 19.6835 17.5 14.5773
471 157 2 -0.8476 20.5 17.5 14.0
472 158 1 0.4238 24.3165 17.5 14.5773
473 158 1 0.4238 22.6835 17.5 14.5773
474 158 2 -0.8476 23.5 17.5 14.0
475 159 1 0.4238 27.3165 17.5 14.5773
476 159 1 0.4238 25.6835 17.5 14.5773
477 159 2 -0.8476 26.5 17.5 14.0
478 160 1 0.4238 30.3165 17.5 14.5773
479 160 1 0.4238 28.6835 17.5 14.5773
480 160 2 -0.8476 29.5 17.5 14.0
481 161 1 0.4238 3.3165 20.5 14.5773
482 161 1 0.4238 1.6835 20.5 14.5773
483 161 2 -0.8476 2.5 20.5 14.0
484 162 1 0.4238 6.3165 20.5 14.5773
485 162 1 0.4238 4.6835 20.5 14.5773
486 162 2 -0.8476 5.5 20.5 14.0
487 163 1 0.4238 9.3165 20.5 14.5773
488 163 1 0.4238 7.6835 20.5 14.5773
489 163 2 -0.8476 8.5 20.5 14.0
490 164 1 0.4238 12.3165 20.5 14.5773
491 164 1 0.4238 10.6835 20.5 14.5773
492 164 2 -0.8476 11.5 20.5 14.0
493 165 1 0.4238 15.3165 20.5 14.5773
494 165 1 0.4238 13.6835 20.5 14.5773
495 165 2 -0.8476 14.5 20.5 14.0
496 166 1 0.4238 18.3165 20.5 14.5773
497 166 1 0.4238 16.6835 20.5 14.5773
498 166 2 -0.8476 17.5 20.5 14.0
499 167 1 0.4238 21.3165 20.5 14.5773
500 167 1 0.4238 19.6835 20.5 14.5773
501 167 2 -0.8476 20.5 20.5 14.0
502 168 1 0.4238 24.3165 20.5 14.5773
503 168 1 0.4238 22.6835 20.5 14.5773
504 168 2 -0.8476 23.5 20.5 14.0
505 169 1 0.4238 27.3165 20.5 14.5773
506 169 1 0.4238 25.6835 20.5 14.5773
507 169 2 -0.8476 26.5 20.5 14.0
508 170 1 0.4238 30.3165 20.5 14.5773
509 170 1 0.4238 28.6835 20.5 14.5773
510 170 2 -0.8476 29.5 20.5 14.0
511 171 1 0.4238 3.3165 23.5 14.5773
512 171 1 0.4238 1.6835 23.5 14.5773
513 171 2 -0.8476 2.5 23.5 14.0
514 172 1 0.4238 6.3165 23.5 14.5773
515 172 1 0.4238 4.6835 23.5 14.5773
516 172 2 -0.8476 5.5 23.5 14.0
517 173 1 0.4238 9.3165 23.5 14.5773
518 173 1 0.4238 7.6835 23.5 14.5773
519 173 2 -0.8476 8.5 23.5 14.0
520 174 1 0.4238 12.3165 23.5 14.5773
521 174 1 0.4238 10.6835 23.5 14.5773
522 174 2 -0.8476 11.5 23.5 14.0
523 175 1 0.4238 15.3165 23.5 14.5773
524 175 1 0.4238 13.6835 23.5 14.5773
525 175 2 -0.8476 14.5 23.5 14.0
526 176 1 0.4238 18.3165 23.5 14.5773
527 176 1 0.4238 16.6835 23.5 14.5773
528 176 2 -0.8476 17.5 23.5 14.0
529 177 1 0.4238 21.3165 23.5 14.5773
530 177 1 0.4238 19.6835 23.5 14.5773
531 177 2 -0.8476 20.5 23.5 14.0
532 178 1 0.4238 24.3165 23.5 14.5773
533 178 1 0.4238 22.6835 23.5 14.5773
534 178 2 -0.8476 23.5 23.5 14.0
535 179 1 0.4238 27.3165 23.5 14.5773
536 179 1 0.4238 25.6835 23.5 14.5773
537 179 2 -0.8476 26.5 23.5 14.0
538 180 1 0.4238 30.3165 23.5 14.5773
539 180 1 0.4238 28.6835 23.5 14.5773
540 180 2 -0.8476 29.5 23.5 14.0
541 181 1 0.4238 3.3165 26.5 14.5773
542 181 1 0.4238 1.6835 26.5 14.5773
543 181 2 -0.8476 2.5 26.5 14.0
544 182 1 0.4238 6.3165 26.5 14.5773
545 182 1 0.4238 4.6835 26.5 14.5773
546 182 2 -0.8476 5.5 26.5 14.0
547 183 1 0.4238 9.3165 26.5 14.5773
548 183 1 0.4238 7.6835 26.5 14.5773
549 183 2 -0.8476 8.5 26.5 14.0
550 184 1 0.4238 12.3165 26.5 14.5773
551 184 1 0.4238 10.6835 26.5 14.5773
552 184 2 -0.8476 11.5 26.5 14.0
553 185 1 0.4238 15.3165 26.5 14.5773
554 185 1 0.4238 13.6835 26.5 14.5773
555 185 2 -0.8476 14.5 26.5 14.0
556 186 1 0.4238 18.3165 26.5 14.5773
557 186 1 0.4238 16.6835 26.5 14.5773
558 186 2 -0.8476 17.5 26.5 14.0
559 187 1 0.4238 21.3165 26.5 14.5773
560 187 1 0.4238 19.6835 26.5 14.5773
561 187 2 -0.8476 20.5 26.5 14.0
562 188 1 0.4238 24.3165 26.5 14.5773
563 188 1 0.4238 22.6835 26.5 14.5773
564 188 2 -0.8476 23.5 26.5 14.0
565 189 1 0.4238 27.3165 26.5 14.5773
566 189 1 0.4238 25.6835 26.5 14.5773
567 189 2 -0.8476 26.5 26.5 14.0
568 190 1 0.4238 30.3165 26.5 14.5773
569 190 1 0.4238 28.6835 26.5 14.5773
570 190 2 -0.8476 29.5 26.5 14.0
571 191 1 0.4238 3.3165 29.5 14.5773
572 191 1 0.4238 1.6835 29.5 14.5773
573 191 2 -0.8476 2.5 29.5 14.0
574 192 1 0.4238 6.3165 29.5 14.5773
575 192 1 0.4238 4.6835 29.5 14.5773
576 192 2 -0.8476 5.5 29.5 14.0
577 193 1 0.4238 9.3165 29.5 14.5773
578 193 1 0.4238 7.6835 29.5 14.5773
579 193 2 -0.8476 8.5 29.5 14.0
580 194 1 0.4238 12.3165 29.5 14.5773
581 194 1 0.4238 10.6835 29.5 14.5773
582 194 2 -0.8476 11.5 29.5 14.0
583 195 1 0.4238 15.3165 29.5 14.5773
584 195 1 0.4238 13.6835 29.5 14.5773
585 195 2 -0.8476 14.5 29.5 14.0
586 196 1 0.4238 18.3165 29.5 14.5773
587 196 1 0.4238 16.6835 29.5 14.5773
588 196 2 -0.8476 17.5 29.5 14.0
589 197 1 0.4238 21.3165 29.5 14.5773
590 197 1 0.4238 19.6835 29.5 14.5773
591 197 2 -0.8476 20.5 29.5 14.0
592 198 1 0.4238 24.3165 29.5 14.5773
593 198 1 0.4238 22.6835 29.5 14.5773
594 198 2 -0.8476 23.5 29.5 14.0
595 199 1 0.4238 27.3165 29.5 14.5773
596 199 1 0.4238 25.6835 29.5 14.5773
597 199 2 -0.8476 26.5 29.5 14.0
598 200 1 0.4238 30.3165 29.5 14.5773
599 200 1 0.4238 28.6835 29.5 14.5773
600 200 2 -0.8476 29.5 29.5 14.0
601 201 1 0.4238 3.3165 2.5 17.5773
602 201 1 0.4238 1.6835 2.5 17.5773
603 201 2 -0.8476 2.5 2.5 17.0
604 202 1 0.4238 6.3165 2.5 17.5773
605 202 1 0.4238 4.6835 2.5 17.5773
606 202 2 -0.8476 5.5 2.5 17.0
607 203 1 0.4238 9.3165 2.5 17.5773
608 203 1 0.4238 7.6835 2.5 17.5773
609 203 2 -0.8476 8.5 2.5 17.0
610 204 1 0.4238 12.3165 2.5 17.5773
611 204 1 0.4238 10.6835 2.5 17.5773
612 204 2 -0.8476 11.5 2.5 17.0
613 205 1 0.4238 15.3165 2.5 17.5773
614 205 1 0.4238 13.6835 2.5 17.5773
615 205 2 -0.8476 14.5 2.5 17.0
616 206 1 0.4238 18.3165 2.5 17.5773
617 206 1 0.4238 16.6835 2.5 17.5773
618 206 2 -0.8476 17.5 2.5 17.0
619 207 1 0.4238 21.3165 2.5 17.5773
620 207 1 0.4238 19.6835 2.5 17.5773
621 207 2 -0.8476 20.5 2.5 17.0
622 208 1 0.4238 24.3165 2.5 17.5773
623 208 1 0.4238 22.6835 2.5 17.5773
624 208 2 -0.8476 23.5 2.5 17.0
625 209 1 0.4238 27.3165 2.5 17.5773
626 209 1 0.4238 25.6835 2.5 17.5773
627 209 2 -0.8476 26.5 2.5 17.0
628 210 1 0.4238 30.3165 2.5 17.5773
629 210 1 0.4238 28.6835 2.5 17.5773
630 210 2 -0.8476 29.5 2.5 17.0
631 211 1 0.4238 3.3165 5.5 17.5773
632 211 1 0.4238 1.6835 5.5 17.5773
633 211 2 -0.8476 2.5 5.5 17.0
634 212 1 0.4238 6.3165 5.5 17.5773
635 212 1 0.4238 4.6835 5.5 17.5773
636 212 2 -0.8476 5.5 5.5 17.0
637 213 1 0.4238 9.3165 5.5 17.5773
638 213 1 0.4238 7.6835 5.5 17.5773
639 213 2 -0.8476 8.5 5.5 17.0
640 214 1 0.4238 12.3165 5.5 17.5773
641 214 1 0.4238 10.6835 5.5 17.5773
642 214 2 -0.8476 11.5 5.5 17.0
643 215 1 0.4238 15.3165 5.5 17.5773
644 215 1 0.4238 13.6835 5.5 17.5773
645 215 2 -0.8476 14.5 5.5 17.0
646 216 1 0.4238 18.3165 5.5 17.5773
647 216 1 0.4238 16.6835 5.5 17.5773
648 216 2 -0.8476 17.5 5.5 17.0
649 217 1 0.4238 21.3165 5.5 17.5773
650 217 1 0.4238 19.6835 5.5 17.5773
651 217 2 -0.8476 20.5 5.5 17.0
652 218 1 0.4238 24.3165 5.5 17.5773
653 218 1 0.4238 22.6835 5.5 17.5773
654 218 2 -0.8476 23.5 5.5 17.0
655 219 1 0.4238 27.3165 5.5 17.5773
656 219 1 0.4238 25.6835 5.5 17.5773
657 219 2 -0.8476 26.5 5.5 17.0
658 220 1 0.4238 30.3165 5.5 17.5773
659 220 1 0.4238 28.6835 5.5 17.5773
660 220 2 -0.8476 29.5 5.5 17.0
661 221 1 0.4238 3.3165 8.5 17.5773
662 221 1 0.4238 1.6835 8.5 17.5773
663 221 2 -0.8476 2.5 8.5 17.0
664 222 1 0.4238 6.3165 8.5 17.5773
665 222 1 0.4238 4.6835 8.5 17.5773
666 222 2 -0.8476 5.5 8.5 17.0
667 223 1 0.4238 9.3165 8.5 17.5773
668 223 1 0.4238 7.6835 8.5 17.5773
669 223 2 -0.8476 8.5 8.5 17.0
670 224 1 0.4238 12.3165 8.5 17.5773
671 224 1 0.4238 10.6835 8.5 17.5773
672 224 2 -0.8476 11.5 8.5 17.0
673 225 1 0.4238 15.3165 8.5 17.5773
674 225 1 0.4238 13.6835 8.5 17.5773
675 225 2 -0.8476 14.5 8.5 17.0
676 226 1 0.4238 18.3165 8.5 17.5773
677 226 1 0.4238 16.6835 8.5 17.5773
678 226 2 -0.8476 17.5 8.5 17.0
679 227 1 0.4238 21.3165 8.5 17.5773
680 227 1 0.4238 19.6835 8.5 17.5773
681 227 2 -0.8476 20.5 8.5 17.0
682 228 1 0.4238 24.3165 8.5 17.5773
683 228 1 0.4238 22.6835 8.5 17.5773
684 228 2 -0.8476 23.5 8.5 17.0
685 229 1 0.4238 27.3165 8.5 17.5773
686 229 1 0.4238 25.6835 8.5 17.5773
687 229 2 -0.8476 26.5 8.5 17.0
688 230 1 0.4238 30.3165 8.5 17.5773
689 230 1 0.4238 28.6835 8.5 17.5773
690 230 2 -0.8476 29.5 8.5 17.0
691 231 1 0.4238 3.3165 11.5 17.5773
692 231 1 0.4238 1.6835 11.5 17.5773
693 231 2 -0.8476 2.5 11.5 17.0
694 232 1 0.4238 6.3165 11.5 17.5773
695 232 1 0.4238 4.6835 11.5 17.5773
696 232 2 -0.8476 5.5 11.5 17.0
697 233 1 0.4238 9.3165 11.5 17.5773
698 233 1 0.4238 7.6835 11.5 17.5773
699 233 2 -0.8476 8.5 11.5 17.0
700 234 1 0.4238 12.3165 11.5 17.5773
701 234 1 0.4238 10.6835 11.5 17.5773
702 234 2 -0.8476 11.5 11.5 17.0
703 235 1 0.4238 15.3165 11.5 17.5773
704 235 1 0.4238 13.6835 11.5 17.5773
705 235 2 -0.8476 14.5 11.5 17.0
706 236 1 0.4238 18.3165 11.5 17.5773
707 236 1 0.4238 16.6835 11.5 17.5773
708 236 2 -0.8476 17.5 11.5 17.0
709 237 1 0.4238 21.3165 11.5 17.5773
710 237 1 0.4238 19.6835 11.5 17.5773
711 237 2 -0.8476 20.5 11.5 17.0
712 238 1 0.4238 24.3165 11.5 17.5773
713 238 1 0.4238 22.6835 11.5 17.5773
714 238 2 -0.8476 23.5 11.5 17.0
715 239 1 0.4238 27.3165 11.5 17.5773
716 239 1 0.4238 25.6835 11.5 17.5773
717 239 2 -0.8476 26.5 11.5 17.0
718 240 1 0.4238 30.3165 11.5 17.5773
719 240 1 0.4238 28.6835 11.5 17.5773
720 240 2 -0.8476 29.5 11.5 17.0
721 241 1 0.4238 3.3165 14.5 17.5773
722 241 1 0.4238 1.6835 14.5 17.5773
723 241 2 -0.8476 2.5 14.5 17.0
724 242 1 0.4238 6.3165 14.5 17.5773
725 242 1 0.4238 4.6835 14.5 17.5773
726 242 2 -0.8476 5.5 14.5 17.0
727 243 1 0.4238 9.3165 14.5 17.5773
728 243 1 0.4238 7.6835 14.5 17.5773
729 243 2 -0.8476 8.5 14.5 17.0
730 244 1 0.4238 12.3165 14.5 17.5773
731 244 1 0.4238 10.6835 14.5 17.5773
732 244 2 -0.8476 11.5 14.5 17.0
733 245 1 0.4238 15.3165 14.5 17.5773
734 245 1 0.4238 13.6835 14.5 17.5773
735 245 2 -0.8476 14.5 14.5 17.0
736 246 1 0.4238 18.3165 14.5 17.5773
737 246 1 0.4238 16.6835 14.5 17.5773
738 246 2 -0.8476 17.5 14.5 17.0
739 247 1 0.4238 21.3165 14.5 17.5773
740 247 1 0.4238 19.6835 14.5 17.5773
741 247 2 -0.8476 20.5 14.5 17.0
742 248 1 0.4238 24.3165 14.5 17.5773
743 248 1 0.4238 22.6835 14.5 17.5773
744 248 2 -0.8476 23.5 14.5 17.0
745 249 1 0.4238 27.3165 14.5 17.5773
746 249 1 0.4238 25.6835 14.5 17.5773
747 249 2 -0.8476 26.5 14.5 17.0
748 250 1 0.4238 30.3165 14.5 17.5773
749 250 1 0.4238 28.6835 14.5 17.5773
750 250 2 -0.8476 29.5 14.5 17.0
751 251 1 0.4238 3.3165 17.5 17.5773
752 251 1 0.4238 1.6835 17.5 17.5773
753 251 2 -0.8476 2.5 17.5 17.0
754 252 1 0.4238 6.3165 17.5 17.5773
755 252 1 0.4238 4.6835 17.5 17.5773
756 252 2 -0.8476 5.5 17.5 17.0
757 253 1 0.4238 9.3165 17.5 17.5773
758 253 1 0.4238 7.6835 17.5 17.5773
759 253 2 -0.8476 8.5 17.5 17.0
760 254 1 0.4238 12.3165 17.5 17.5773
761 254 1 0.4238 10.6835 17.5 17.5773
762 254 2 -0.8476 11.5 17.5 17.0
763 255 1 0.4238 15.3165 17.5 17.5773
764 255 1 0.4238 13.6835 17.5 17.5773
765 255 2 -0.8476 14.5 17.5 17.0
766 256 1 0.4238 18.3165 17.5 17.5773
767 256 1 0.4238 16.6835 17.5 17.5773
768 256 2 -0.8476 17.5 17.5 17.0
769 257 1 0.4238 21.3165 17.5 17.5773
770 257 1 0.4238 19.6835 17.5 17.5773
771 257 2 -0.8476 20.5 17.5 17.0
772 258 1 0.4238 24.3165 17.5 17.5773
773 258 1 0.4238 22.6835 17.5 17.5773
774 258 2 -0.8476 23.5 17.5 17.0
775 259 1 0.4238 27.3165 17.5 17.5773
776 259 1 0.4238 25.6835 17.5 17.5773
777 259 2 -0.8476 26.5 17.5 17.0
778 260 1 0.4238 30.3165 17.5 17.5773
779 260 1 0.4238 28.6835 17.5 17.5773
780 260 2 -0.8476 29.5 17.5 17.0
781 261 1 0.4238 3.3165 20.5 17.5773
782 261 1 0.4238 1.6835 20.5 17.5773
783 261 2 -0.8476 2.5 20.5 17.0
784 262 1 0.4238 6.3165 20.5 17.5773
785 262 1 0.4238 4.6835 20.5 17.5773
786 262 2 -0.8476 5.5 20.5 17.0
787 263 1 0.4238 9.3165 20.5 17.5773
788 263 1 0.4238 7.6835 20.5 17.5773
789 263 2 -0.8476 8.5 20.5 17.0
790 264 1 0.4238 12.3165 20.5 17.5773
791 264 1 0.4238 10.6835 20.5 17.5773
792 264 2 -0.8476 11.5 20.5 17.0
793 265 1 0.4238 15.3165 20.5 17.5773
794 265 1 0.4238 13.6835 20.5 17.5773
795 265 2 -0.8476 14.5 20.5 17.0
796 266 1 0.4238 18.3165 20.5 17.5773
797 266 1 0.4238 16.6835 20.5 17.5773
798 266 2 -0.8476 17.5 20.5 17.0
799 267 1 0.4238 21.3165 20.5 17.5773
800 267 1 0.4238 19.6835 20.5 17.5773
801 267 2 -0.8476 20.5 20.5 17.0
802 268 1 0.4238 24.3165 20.5 17.5773
803 268 1 0.4238 22.6835 20.5 17.5773
804 268 2 -0.8476 23.5 20.5 17.0
805 269 1 0.4238 27.3165 20.5 17.5773
806 269 1 0.4238 25.6835 20.5 17.5773
807 269 2 -0.8476 26.5 20.5 17.0
808 270 1 0.4238 30.3165 20.5 17.5773
809 270 1 0.4238 28.6835 20.5 17.5773
810 270 2 -0.8476 29.5 20.5 17.0
811 271 1 0.4238 3.3165 23.5 17.5773
812 271 1 0.4238 1.6835 23.5 17.5773
813 271 2 -0.8476 2.5 23.5 17.0
814 272 1 0.4238 6.3165 23.5 17.5773
815 272 1 0.4238 4.6835 23.5 17.5773
816 272 2 -0.8476 5.5 23.5 17.0
817 273 1 0.4238 9.3165 23.5 17.5773
818 273 1 0.4238 7.6835 23.5 17.5773
819 273 2 -0.8476 8.5 23.5 17.0
820 274 1 0.4238 12.3165 23.5 17.5773
821 274 1 0.4238 10.6835 23.5 17.5773
822 274 2 -0.8476 11.5 23.5 17.0
823 275 1 0.4238 15.3165 23.5 17.5773
824 275 1 0.4238 13.6835 23.5 17.5773
825 275 2 -0.8476 14.5 23.5 17.0
826 276 1 0.4238 18.3165 23.5 17.5773
827 276 1 0.4238 16.6835 23.5 17.5773
828 276 2 -0.8476 17.5 23.5 17.0
829 277 1 0.4238 21.3165 23.5 17.5773
830 277 1 0.4238 19.6835 23.5 17.5773
831 277 2 -0.8476 20.5 23.5 17.0
832 278 1 0.4238 24.3165 23.5 17.5773
833 278 1 0.4238 22.6835 23.5 17.5773
834 278 2 -0.8476 23.5 23.5 17.0
835 279 1 0.4238 27.3165 23.5 17.5773
836 279 1 0.4238 25.6835 23.5 17.5773
837 279 2 -0.8476 26.5 23.5 17.0
838 280 1 0.4238 30.3165 23.5 17.5773
839 280 1 0.4238 28.6835 23.5 17.5773
840 280 2 -0.8476 29.5 23.5 17.0
841 281 1 0.4238 3.3165 26.5 17.5773
842 281 1 0.4238 1.6835 26.5 17.5773
843 281 2 -0.8476 2.5 26.5 17.0