LAMMPS Description

2703  atoms
1802  bonds
901  angles
0  dihedrals
0  impropers

2  atom types
1  bond types
1  angle types

-1.0 31.0 xlo xhi
-1.0 31.0 ylo yhi
-1.0 101.0 zlo zhi

Masses

1 1.0080
2 15.9994

Atoms

1 1 1 0.4238 8.182665 22.316758 18.232294
2 1 1 0.4238 8.127402 21.023458 17.236799
3 1 2 -0.8476 7.578785 21.667977 17.769306
4 2 1 0.4238 16.245642 22.797883 10.242071
5 2 1 0.4238 16.884587 23.895943 11.268084
6 2 2 -0.8476 16.604011 23.727912 10.323102
7 3 1 0.4238 29.716919 9.998175 16.618441
8 3 1 0.4238 29.985331 8.394885 16.463182
9 3 2 -0.8476 29.652191 9.111397 17.076024
10 4 1 0.4238 25.194115 20.106170 15.754365
11 4 1 0.4238 26.532065 19.178446 15.880489
12 4 2 -0.8476 25.958856 19.703472 15.251421
13 5 1 0.4238 15.443571 27.059130 15.443041
14 5 1 0.4238 14.849417 27.589990 14.017609
15 5 2 -0.8476 14.841398 27.728459 15.007917
16 6 1 0.4238 18.421740 17.044552 13.462175
17 6 1 0.4238 17.006996 16.260380 13.686369
18 6 2 -0.8476 17.451372 17.156136 13.676377
19 7 1 0.4238 10.306426 20.284455 24.510035
20 7 1 0.4238 10.259553 18.685916 24.840437
21 7 2 -0.8476 10.018957 19.388707 24.171000
22 8 1 0.4238 28.805810 9.996496 2.856154
23 8 1 0.4238 27.207461 9.921994 3.182372
24 8 2 -0.8476 27.925877 10.456379 2.737109
25 9 1 0.4238 11.514956 16.035630 12.151898
26 9 1 0.4238 12.981166 16.753546 12.113013
27 9 2 -0.8476 12.240021 16.379753 11.555402
28 10 1 0.4238 9.900387 4.173699 27.835729
29 10 1 0.4238 10.513552 4.317958 29.342350
30 10 2 -0.8476 10.516923 3.765432 28.508892
31 11 1 0.4238 1.292037 28.337952 22.375215
32 11 1 0.4238 0.000559 29.336227 22.328099
33 11 2 -0.8476 0.638813 28.854637 22.928642
34 12 1 0.4238 9.286889 24.698296 9.477727
35 12 1 0.4238 7.739106 25.168930 9.700347
36 12 2 -0.8476 8.683355 25.297993 10.003140
37 13 1 0.4238 26.797285 5.916619 24.214053
38 13 1 0.4238 27.234823 4.348258 24.089583
39 13 2 -0.8476 26.846778 5.042004 24.696283
40 14 1 0.4238 13.379609 18.896048 1.711410
41 14 1 0.4238 11.899799 19.553098 1.498960
42 14 2 -0.8476 12.733622 19.252133 1.036243
43 15 1 0.4238 14.388789 22.519654 7.921217
44 15 1 0.4238 14.816658 23.962621 8.554828
45 15 2 -0.8476 14.136251 23.230187 8.577962
46 16 1 0.4238 9.970970 5.011300 23.219108
47 16 1 0.4238 8.664304 5.612095 22.445571
48 16 2 -0.8476 9.155053 4.776103 22.690989
49 17 1 0.4238 8.930862 6.604761 15.657536
50 17 1 0.4238 8.854202 4.993108 15.405765
51 17 2 -0.8476 9.181878 5.708424 16.022936
52 18 1 0.4238 10.729223 17.355766 19.934112
53 18 1 0.4238 11.932434 17.781202 18.915301
54 18 2 -0.8476 10.990947 17.973123 19.192278
55 19 1 0.4238 21.532990 24.338251 17.378531
56 19 1 0.4238 20.508903 23.085226 17.597308
57 19 2 -0.8476 21.049930 23.787839 18.059447
58 20 1 0.4238 14.918810 29.825692 3.065984
59 20 1 0.4238 13.552570 29.323652 2.325691
60 20 2 -0.8476 14.281215 30.008457 2.317640
61 21 1 0.4238 9.630237 22.271570 23.540824
62 21 1 0.4238 8.338717 21.627147 24.304621
63 21 2 -0.8476 8.754415 21.806239 23.412955
64 22 1 0.4238 13.860881 13.265445 7.293323
65 22 1 0.4238 13.006152 12.969276 8.652885
66 22 2 -0.8476 13.910238 12.915961 8.228936
67 23 1 0.4238 11.457749 8.759676 12.268297
68 23 1 0.4238 12.621828 7.629522 12.082928
69 23 2 -0.8476 11.998544 8.060275 12.735551
70 24 1 0.4238 14.763502 16.405949 1.375302
71 24 1 0.4238 14.690332 14.778836 1.492934
72 24 2 -0.8476 14.816637 15.629500 2.003195
73 25 1 0.4238 19.333681 14.673362 24.712520
74 25 1 0.4238 20.289518 15.573545 25.683465
75 25 2 -0.8476 19.713146 14.757899 25.633827
76 26 1 0.4238 2.705768 0.968270 11.999940
77 26 1 0.4238 2.832213 0.877506 10.374375
78 26 2 -0.8476 3.106374 0.457357 11.239394
79 27 1 0.4238 25.246967 27.265448 4.573423
80 27 1 0.4238 23.722722 27.836231 4.440853
81 27 2 -0.8476 24.529799 27.537249 3.931752
82 28 1 0.4238 0.736759 24.342520 6.589488
83 28 1 0.4238 1.925022 23.897843 5.561391
84 28 2 -0.8476 1.544213 24.656423 6.090057
85 29 1 0.4238 11.588023 12.221326 22.021265
86 29 1 0.4238 12.454054 13.238746 21.082363
87 29 2 -0.8476 12.503609 12.442877 21.685756
88 30 1 0.4238 2.458492 24.046931 8.321538
89 30 1 0.4238 2.947813 22.517393 8.025280
90 30 2 -0.8476 2.658878 23.377932 7.605832
91 31 1 0.4238 5.237305 23.920134 1.920669
92 31 1 0.4238 5.974052 22.463697 1.868855
93 31 2 -0.8476 5.828251 23.322873 1.378442
94 32 1 0.4238 16.847491 11.731325 14.380120
95 32 1 0.4238 18.007478 10.913246 15.187503
96 32 2 -0.8476 17.107783 11.342939 15.264062
97 33 1 0.4238 10.687022 14.647911 13.689488
98 33 1 0.4238 11.887788 13.962240 12.820749
99 33 2 -0.8476 11.476978 14.036093 13.729446
100 34 1 0.4238 20.041163 29.994764 12.383133
101 34 1 0.4238 20.154695 28.391262 12.095761
102 34 2 -0.8476 19.997407 29.286393 11.678688
103 35 1 0.4238 5.190814 15.325707 24.980539
104 35 1 0.4238 5.256825 13.811604 24.372409
105 35 2 -0.8476 5.134225 14.352741 25.204327
106 36 1 0.4238 27.704692 20.751217 28.634639
107 36 1 0.4238 26.107267 20.418663 28.700458
108 36 2 -0.8476 26.886638 20.563729 28.090963
109 37 1 0.4238 27.684064 11.111197 23.080490
110 37 1 0.4238 28.721997 9.986240 23.649571
111 37 2 -0.8476 27.964151 10.593226 23.888701
112 38 1 0.4238 23.412148 12.244688 15.629031
113 38 1 0.4238 22.272251 13.220915 14.985366
114 38 2 -0.8476 22.669539 12.303549 14.961937
115 39 1 0.4238 8.234250 16.343228 29.996950
116 39 1 0.4238 7.009297 16.768132 29.004158
117 39 2 -0.8476 7.987304 16.871955 29.184908
118 40 1 0.4238 21.294734 12.590629 17.441250
119 40 1 0.4238 19.694695 12.876010 17.599743
120 40 2 -0.8476 20.552340 12.737398 18.094899
121 41 1 0.4238 14.865324 27.824891 6.162706
122 41 1 0.4238 15.139584 29.228425 5.374314
123 41 2 -0.8476 14.713610 28.325956 5.310729
124 42 1 0.4238 10.455272 21.914928 5.680551
125 42 1 0.4238 9.502890 20.592277 5.579287
126 42 2 -0.8476 9.804493 21.419485 5.105250
127 43 1 0.4238 29.099712 17.351211 29.355255
128 43 1 0.4238 28.396280 18.821950 29.449061
129 43 2 -0.8476 28.882293 18.186057 28.849579
130 44 1 0.4238 18.453445 29.744968 16.310105
131 44 1 0.4238 17.871013 28.298936 16.796370
132 44 2 -0.8476 17.908968 28.951140 16.039312
133 45 1 0.4238 26.946496 22.599715 20.779925
134 45 1 0.4238 28.568655 22.475366 20.639118
135 45 2 -0.8476 27.801401 22.462935 21.280300
136 46 1 0.4238 8.950784 3.801380 17.309472
137 46 1 0.4238 9.288787 3.820486 18.906995
138 46 2 -0.8476 9.095165 3.234285 18.120339
139 47 1 0.4238 19.017393 15.447399 28.244835
140 47 1 0.4238 18.442776 14.061969 27.599013
141 47 2 -0.8476 18.387979 14.682438 28.381293
142 48 1 0.4238 13.735435 27.478773 3.515532
143 48 1 0.4238 13.768632 26.015130 2.792111
144 48 2 -0.8476 14.070204 26.539329 3.588489
145 49 1 0.4238 17.418104 8.953763 0.742263
146 49 1 0.4238 18.717118 9.116660 1.718335
147 49 2 -0.8476 18.417187 8.981548 0.774018
148 50 1 0.4238 12.589608 10.249534 21.544423
149 50 1 0.4238 13.864291 9.248706 21.343885
150 50 2 -0.8476 13.105428 9.493526 21.947323
151 51 1 0.4238 6.010176 4.560574 14.777381
152 51 1 0.4238 6.786930 5.781496 15.534143
153 51 2 -0.8476 6.084542 5.554384 14.859593
154 52 1 0.4238 15.231792 24.141442 29.013331
155 52 1 0.4238 16.508154 23.883532 29.998759
156 52 2 -0.8476 16.110850 24.504057 29.322708
157 53 1 0.4238 14.107590 25.893873 7.057078
158 53 1 0.4238 12.958942 27.030058 7.294521
159 53 2 -0.8476 13.142160 26.047381 7.267618
160 54 1 0.4238 5.194243 14.987625 29.924348
161 54 1 0.4238 5.174269 13.636287 29.007738
162 54 2 -0.8476 5.374851 14.615919 29.013764
163 55 1 0.4238 9.656455 6.789493 9.184938
164 55 1 0.4238 8.051573 6.506224 9.288861
165 55 2 -0.8476 8.866139 6.389769 8.720646
166 56 1 0.4238 2.768826 21.087625 20.513267
167 56 1 0.4238 2.001511 19.646996 20.563325
168 56 2 -0.8476 2.302319 20.391604 19.967489
169 57 1 0.4238 12.354974 0.208883 8.654643
170 57 1 0.4238 11.374097 0.085988 7.354848
171 57 2 -0.8476 12.316008 -0.003962 7.678361
172 58 1 0.4238 1.966094 0.458052 22.056754
173 58 1 0.4238 0.396422 0.145993 22.381469
174 58 2 -0.8476 1.291461 0.336284 22.784759
175 59 1 0.4238 25.882663 29.887041 19.339531
176 59 1 0.4238 24.284833 29.995714 19.658621
177 59 2 -0.8476 25.120004 29.476212 19.839049
178 60 1 0.4238 18.069308 23.530362 8.149551
179 60 1 0.4238 18.450431 22.795756 9.557311
180 60 2 -0.8476 18.820190 23.256369 8.750428
181 61 1 0.4238 26.490360 24.757301 21.173149
182 61 1 0.4238 25.702739 25.142465 22.550825
183 61 2 -0.8476 26.356472 24.511492 22.133149
184 62 1 0.4238 3.421345 22.434592 1.557383
185 62 1 0.4238 4.253923 21.921436 0.249647
186 62 2 -0.8476 4.044367 21.734138 1.209310
187 63 1 0.4238 28.836270 12.619760 28.335355
188 63 1 0.4238 28.844702 13.687666 29.570748
189 63 2 -0.8476 29.397066 13.035895 29.051097
190 64 1 0.4238 3.847340 29.932011 13.514440
191 64 1 0.4238 5.038485 29.202745 14.360628
192 64 2 -0.8476 4.803728 29.996300 13.799284
193 65 1 0.4238 6.409886 5.504443 24.736176
194 65 1 0.4238 7.043774 6.715255 23.842415
195 65 2 -0.8476 6.488012 6.497145 24.644602
196 66 1 0.4238 22.059650 15.678767 23.871362
197 66 1 0.4238 23.451660 15.014043 24.407216
198 66 2 -0.8476 22.925731 15.262957 23.593958
199 67 1 0.4238 13.660282 20.567625 29.908712
200 67 1 0.4238 12.664908 19.276255 29.999721
201 67 2 -0.8476 13.114416 19.918534 29.378940
202 68 1 0.4238 6.298676 4.370949 5.504932
203 68 1 0.4238 7.903232 4.447739 5.211347
204 68 2 -0.8476 7.191453 4.588175 5.899531
205 69 1 0.4238 2.548859 20.736181 2.995395
206 69 1 0.4238 1.300312 19.686351 3.070742
207 69 2 -0.8476 1.959222 20.211432 3.609329
208 70 1 0.4238 16.386176 10.652914 19.131497
209 70 1 0.4238 17.213073 9.609116 18.186290
210 70 2 -0.8476 17.116441 10.567816 18.453693
211 71 1 0.4238 16.751042 27.512559 2.416294
212 71 1 0.4238 15.211665 27.902685 2.035755
213 71 2 -0.8476 15.810889 27.550797 2.754818
214 72 1 0.4238 20.288777 17.748043 19.537026
215 72 1 0.4238 20.469802 18.232097 21.086094
216 72 2 -0.8476 20.045279 18.449206 20.207122
217 73 1 0.4238 16.652654 22.134312 6.532757
218 73 1 0.4238 16.174253 23.650737 6.160900
219 73 2 -0.8476 15.866985 22.710539 6.307739
220 74 1 0.4238 27.120561 24.661410 6.310174
221 74 1 0.4238 25.507172 24.829660 6.122141
222 74 2 -0.8476 26.238700 24.656683 6.781605
223 75 1 0.4238 27.336540 15.501961 1.116875
224 75 1 0.4238 26.277740 16.144473 2.181210
225 75 2 -0.8476 26.440101 15.389804 1.545552
226 76 1 0.4238 17.648056 5.200324 12.294788
227 76 1 0.4238 16.432439 6.073584 11.641809
228 76 2 -0.8476 16.666470 5.218703 12.104794
229 77 1 0.4238 19.113053 26.302696 15.933817
230 77 1 0.4238 20.670592 26.275195 16.423717
231 77 2 -0.8476 20.064372 26.260557 15.628589
232 78 1 0.4238 21.535232 18.809386 23.868546
233 78 1 0.4238 20.642281 20.176605 23.874878
234 78 2 -0.8476 20.956468 19.409170 23.316061
235 79 1 0.4238 23.955629 2.236563 0.645857
236 79 1 0.4238 23.393359 0.703434 0.653374
237 79 2 -0.8476 23.684334 1.469220 1.226831
238 80 1 0.4238 17.542454 15.685047 20.960863
239 80 1 0.4238 18.367350 17.089536 20.844051
240 80 2 -0.8476 18.010450 16.307340 20.333425
241 81 1 0.4238 3.186197 15.356781 10.069458
242 81 1 0.4238 2.711049 13.803664 10.239014
243 81 2 -0.8476 3.325184 14.512211 10.586499
244 82 1 0.4238 29.995635 23.908837 17.022677
245 82 1 0.4238 29.880829 24.539001 18.524809
246 82 2 -0.8476 29.591276 23.789574 17.929440
247 83 1 0.4238 13.461225 20.504623 8.235393
248 83 1 0.4238 13.924020 19.766120 9.616379
249 83 2 -0.8476 13.142511 20.001395 9.038593
250 84 1 0.4238 29.320851 8.760727 14.394980
251 84 1 0.4238 28.275145 9.009586 13.165648
252 84 2 -0.8476 29.076293 8.490690 13.463734
253 85 1 0.4238 24.077029 17.160440 23.542921
254 85 1 0.4238 23.582453 18.357942 24.536940
255 85 2 -0.8476 23.592032 18.033598 23.591076
256 86 1 0.4238 7.768162 20.450129 20.126407
257 86 1 0.4238 8.819327 19.439459 19.391366
258 86 2 -0.8476 8.103934 20.122293 19.243385
259 87 1 0.4238 14.130807 18.400601 13.010960
260 87 1 0.4238 14.670153 17.021531 13.699408
261 87 2 -0.8476 14.888046 17.748575 13.048350
262 88 1 0.4238 10.588424 16.380503 0.010336
263 88 1 0.4238 10.506208 15.470995 1.364118
264 88 2 -0.8476 10.231107 15.533936 0.404793
265 89 1 0.4238 26.954361 5.116921 17.141611
266 89 1 0.4238 28.215918 4.247743 17.707025
267 89 2 -0.8476 27.640331 4.427410 16.909299
268 90 1 0.4238 27.344083 11.175556 7.093242
269 90 1 0.4238 28.330674 11.460724 8.362890
270 90 2 -0.8476 27.878225 10.750311 7.823863
271 91 1 0.4238 17.017447 21.340981 1.452571
272 91 1 0.4238 18.199129 20.656036 2.347651
273 91 2 -0.8476 17.999515 21.334668 1.640856
274 92 1 0.4238 13.826598 23.169895 20.450974
275 92 1 0.4238 15.367187 23.564103 20.822288
276 92 2 -0.8476 14.616407 23.720353 20.180522
277 93 1 0.4238 11.509890 25.689391 12.373069
278 93 1 0.4238 11.745667 27.277519 12.074829
279 93 2 -0.8476 11.706979 26.577619 12.787985
280 94 1 0.4238 7.601942 9.470710 3.479008
281 94 1 0.4238 8.734446 8.420408 2.948925
282 94 2 -0.8476 8.577138 9.344409 3.297383
283 95 1 0.4238 1.873145 16.357015 24.509103
284 95 1 0.4238 0.357031 15.753479 24.571012
285 95 2 -0.8476 1.329524 15.523411 24.606716
286 96 1 0.4238 3.714498 10.669192 26.536074
287 96 1 0.4238 2.155322 10.505752 26.993179
288 96 2 -0.8476 3.056912 10.073238 26.996906
289 97 1 0.4238 27.795794 14.911622 3.211403
290 97 1 0.4238 27.611607 16.348964 3.964272
291 97 2 -0.8476 28.129452 15.493595 3.952974
292 98 1 0.4238 13.300690 23.373757 26.999605
293 98 1 0.4238 12.567575 24.807889 26.730352
294 98 2 -0.8476 12.790147 24.122016 27.423164
295 99 1 0.4238 16.017194 19.485112 19.504655
296 99 1 0.4238 17.532568 19.926018 19.085212
297 99 2 -0.8476 16.559780 20.086579 18.918324
298 100 1 0.4238 16.946029 24.172025 2.221151
299 100 1 0.4238 17.647936 23.403572 0.962781
300 100 2 -0.8476 17.179905 24.238858 1.251211
301 101 1 0.4238 21.487783 25.305364 0.912417
302 101 1 0.4238 21.069542 26.242696 2.182524
303 101 2 -0.8476 21.297455 25.312747 1.894083
304 102 1 0.4238 13.636650 22.283361 5.864219
305 102 1 0.4238 12.819999 20.872647 5.962491
306 102 2 -0.8476 12.880560 21.807171 6.313127
307 103 1 0.4238 24.098053 21.520756 21.140352
308 103 1 0.4238 23.065493 22.049357 22.289739
309 103 2 -0.8476 23.141714 21.728620 21.345670
310 104 1 0.4238 22.971071 2.450744 19.195381
311 104 1 0.4238 24.544430 2.125537 18.903030
312 104 2 -0.8476 23.907216 2.589479 19.518387
313 105 1 0.4238 12.468274 15.363275 20.524150
314 105 1 0.4238 13.147298 14.703267 19.193734
315 105 2 -0.8476 12.592163 15.460991 19.536703
316 106 1 0.4238 29.192518 27.095613 13.891369
317 106 1 0.4238 28.438899 26.528666 15.224530
318 106 2 -0.8476 28.337830 27.100492 14.410438
319 107 1 0.4238 14.031022 6.201068 10.665750
320 107 1 0.4238 14.415023 4.643093 10.968976
321 107 2 -0.8476 13.701231 5.257607 10.633089
322 108 1 0.4238 1.807818 14.069354 18.215538
323 108 1 0.4238 2.092135 12.539059 18.709550
324 108 2 -0.8476 1.627238 13.103903 18.027810
325 109 1 0.4238 4.908955 22.841680 7.076286
326 109 1 0.4238 6.309901 22.002691 7.064507
327 109 2 -0.8476 5.595864 22.407637 6.493439
328 110 1 0.4238 13.721673 17.208985 3.901084
329 110 1 0.4238 15.325281 17.186809 3.593453
330 110 2 -0.8476 14.611157 16.888389 4.226635
331 111 1 0.4238 2.203903 2.282306 4.216932
332 111 1 0.4238 3.785509 1.949600 4.450425
333 111 2 -0.8476 3.066976 2.059502 3.763709
334 112 1 0.4238 28.517912 12.542384 17.945801
335 112 1 0.4238 28.426122 10.941459 18.254513
336 112 2 -0.8476 28.423380 11.853529 18.664474
337 113 1 0.4238 14.153395 4.879512 18.815505
338 113 1 0.4238 13.079401 4.380004 19.939656
339 113 2 -0.8476 13.276734 4.420734 18.960193
340 114 1 0.4238 27.626240 5.241319 11.019604
341 114 1 0.4238 28.964427 4.305919 11.050811
342 114 2 -0.8476 28.252142 4.730982 11.609308
343 115 1 0.4238 22.386847 2.226521 25.200690
344 115 1 0.4238 24.011136 2.066085 25.252020
345 115 2 -0.8476 23.180586 2.144574 25.803359
346 116 1 0.4238 29.999983 4.426631 29.098303
347 116 1 0.4238 29.037712 5.500956 28.332440
348 116 2 -0.8476 29.592708 4.676776 28.219952
349 117 1 0.4238 16.715878 1.727756 8.768603
350 117 1 0.4238 17.878680 2.811368 8.393950
351 117 2 -0.8476 17.177785 2.564355 9.063038
352 118 1 0.4238 11.956747 7.362777 20.768954
353 118 1 0.4238 11.096280 8.733357 20.987578
354 118 2 -0.8476 11.737671 8.259429 20.384288
355 119 1 0.4238 20.211010 6.198908 11.935969
356 119 1 0.4238 19.297052 7.293834 12.731272
357 119 2 -0.8476 20.183215 7.130790 12.297592
358 120 1 0.4238 22.592525 11.299784 25.084633
359 120 1 0.4238 23.317476 12.586170 24.387248
360 120 2 -0.8476 22.758686 11.773926 24.220036
361 121 1 0.4238 9.101335 12.504509 24.699037
362 121 1 0.4238 8.097274 11.935490 23.543716
363 121 2 -0.8476 8.656096 11.686588 24.334736
364 122 1 0.4238 6.068166 2.136632 12.290625
365 122 1 0.4238 5.374851 3.469259 11.650228
366 122 2 -0.8476 5.572237 2.500220 11.502078
367 123 1 0.4238 17.896620 2.825588 24.665224
368 123 1 0.4238 16.912995 2.367419 23.444876
369 123 2 -0.8476 17.859254 2.386375 23.767648
370 124 1 0.4238 19.879486 15.911806 0.004020
371 124 1 0.4238 19.631819 17.272158 0.872809
372 124 2 -0.8476 19.202651 16.443848 0.512718
373 125 1 0.4238 25.319011 18.438769 -0.002814
374 125 1 0.4238 25.310919 16.840642 0.332766
375 125 2 -0.8476 24.784058 17.688873 0.386325
376 126 1 0.4238 11.993358 11.803252 24.188844
377 126 1 0.4238 13.354066 10.912466 24.336029
378 126 2 -0.8476 12.864346 11.716802 24.672430
379 127 1 0.4238 22.104802 16.359972 19.877810
380 127 1 0.4238 22.994037 15.011585 19.637389
381 127 2 -0.8476 22.240923 15.566705 19.284391
382 128 1 0.4238 4.340692 22.593427 19.904786
383 128 1 0.4238 5.777373 22.039351 19.361062
384 128 2 -0.8476 5.308008 22.815353 19.782327
385 129 1 0.4238 10.518166 11.207454 7.717328
386 129 1 0.4238 11.224704 11.615343 9.131937
387 129 2 -0.8476 11.382837 11.240318 8.218538
388 130 1 0.4238 9.154390 19.129261 8.198569
389 130 1 0.4238 9.755720 17.668681 8.613053
390 130 2 -0.8476 9.024174 18.328770 8.783553
391 131 1 0.4238 8.818598 10.956455 9.365050
392 131 1 0.4238 7.744178 12.138037 9.024205
393 131 2 -0.8476 8.713091 11.928541 9.155612
394 132 1 0.4238 27.158468 18.298682 12.483535
395 132 1 0.4238 26.159513 17.500556 11.467772
396 132 2 -0.8476 27.074373 17.889802 11.574859
397 133 1 0.4238 14.863892 0.890054 7.238758
398 133 1 0.4238 14.726296 0.211343 8.717645
399 133 2 -0.8476 15.273965 0.243090 7.881584
400 134 1 0.4238 28.917479 18.263264 5.196969
401 134 1 0.4238 29.997841 19.085611 6.104301
402 134 2 -0.8476 29.857863 18.600413 5.241204
403 135 1 0.4238 29.561902 16.022518 8.701217
404 135 1 0.4238 29.751437 16.984233 10.007306
405 135 2 -0.8476 29.731511 16.959085 9.007847
406 136 1 0.4238 21.954822 3.623565 27.089498
407 136 1 0.4238 23.231101 4.641945 27.116021
408 136 2 -0.8476 22.599664 4.139388 26.525536
409 137 1 0.4238 26.303314 3.477644 4.347399
410 137 1 0.4238 26.008684 2.135200 3.465511
411 137 2 -0.8476 26.658868 2.876539 3.631716
412 138 1 0.4238 0.263739 18.094432 14.272338
413 138 1 0.4238 0.000001 16.484940 14.353993
414 138 2 -0.8476 0.497010 17.207553 13.873618
415 139 1 0.4238 14.554212 13.329789 17.714577
416 139 1 0.4238 13.068221 12.697320 17.956448
417 139 2 -0.8476 14.042443 12.592973 18.156325
418 140 1 0.4238 0.221287 17.026669 8.282184
419 140 1 0.4238 1.517526 16.275299 8.931719
420 140 2 -0.8476 1.220114 17.015525 8.328762
421 141 1 0.4238 15.214788 14.807604 25.371969
422 141 1 0.4238 14.297996 14.431031 24.074135
423 141 2 -0.8476 15.183196 14.289533 24.517245
424 142 1 0.4238 12.686586 1.252249 12.771849
425 142 1 0.4238 11.202340 1.026815 12.129290
426 142 2 -0.8476 12.120136 1.385223 11.958583
427 143 1 0.4238 10.353503 14.577056 24.871823
428 143 1 0.4238 10.139917 15.260849 23.404343
429 143 2 -0.8476 10.763715 15.172233 24.180855
430 144 1 0.4238 10.572654 6.923925 24.565407
431 144 1 0.4238 11.233338 6.896571 23.072276
432 144 2 -0.8476 11.277049 7.320610 23.976836
433 145 1 0.4238 19.247671 29.459896 1.926977
434 145 1 0.4238 20.523123 29.287384 0.921915
435 145 2 -0.8476 20.173983 29.093694 1.838721
436 146 1 0.4238 24.494138 28.823867 29.450166
437 146 1 0.4238 23.737429 27.476348 29.977683
438 146 2 -0.8476 24.535146 27.825376 29.485978
439 147 1 0.4238 24.191283 7.463767 5.378733
440 147 1 0.4238 22.663339 6.888643 5.414924
441 147 2 -0.8476 23.316993 7.437652 4.894086
442 148 1 0.4238 22.831781 16.648029 15.849931
443 148 1 0.4238 21.761808 15.445395 16.124738
444 148 2 -0.8476 21.991011 16.213571 15.526976
445 149 1 0.4238 27.708293 25.410342 17.548127
446 149 1 0.4238 27.777173 24.021687 16.691633
447 149 2 -0.8476 28.090789 24.970183 16.735782
448 150 1 0.4238 13.883811 30.019348 10.200260
449 150 1 0.4238 12.459356 30.003296 10.998607
450 150 2 -0.8476 13.290527 29.483611 10.801048
451 151 1 0.4238 20.354395 28.231744 5.395856
452 151 1 0.4238 20.464889 27.145144 4.181862
453 151 2 -0.8476 20.699256 28.073368 4.470688
454 152 1 0.4238 9.741870 18.161704 13.154677
455 152 1 0.4238 11.152509 18.562109 12.436024
456 152 2 -0.8476 10.258141 18.136454 12.298654
457 153 1 0.4238 19.354466 10.848548 18.411316
458 153 1 0.4238 19.300538 9.260244 18.786910
459 153 2 -0.8476 19.624086 9.930901 18.119465
460 154 1 0.4238 6.675868 12.109059 3.283881
461 154 1 0.4238 8.194395 11.566585 3.026028
462 154 2 -0.8476 7.632655 12.379789 3.177997
463 155 1 0.4238 9.165994 19.399132 21.586351
464 155 1 0.4238 10.629118 19.420054 20.861424
465 155 2 -0.8476 10.127785 19.650114 21.695501
466 156 1 0.4238 18.502678 10.972390 13.031051
467 156 1 0.4238 19.265545 9.529742 13.090124
468 156 2 -0.8476 18.958017 10.266711 12.488251
469 157 1 0.4238 22.005375 28.189981 10.675388
470 157 1 0.4238 22.362778 29.741527 10.312542
471 157 2 -0.8476 22.097212 29.114614 11.044937
472 158 1 0.4238 5.487333 23.231697 16.612925
473 158 1 0.4238 4.953615 21.699207 16.430423
474 158 2 -0.8476 5.766070 22.278069 16.499582
475 159 1 0.4238 24.776153 23.853002 26.259807
476 159 1 0.4238 24.305850 22.683043 25.222165
477 159 2 -0.8476 24.292504 22.981755 26.176388
478 160 1 0.4238 21.347242 1.842077 7.784458
479 160 1 0.4238 20.709161 3.337706 7.934916
480 160 2 -0.8476 21.132397 2.577237 8.427365
481 161 1 0.4238 27.159291 16.524956 20.925982
482 161 1 0.4238 26.609318 15.282977 21.832463
483 161 2 -0.8476 26.989189 16.207611 21.858883
484 162 1 0.4238 16.014969 17.430787 21.996976
485 162 1 0.4238 15.063673 18.661424 21.499726
486 162 2 -0.8476 15.752350 17.994966 21.214236
487 163 1 0.4238 24.084475 3.135249 29.121987
488 163 1 0.4238 22.801477 3.650403 29.991022
489 163 2 -0.8476 23.261075 3.702393 29.104448
490 164 1 0.4238 5.796897 27.624419 7.417618
491 164 1 0.4238 5.272315 28.787603 8.436689
492 164 2 -0.8476 5.126203 27.848904 8.124529
493 165 1 0.4238 29.599315 29.211275 20.794907
494 165 1 0.4238 28.840156 28.241533 21.867272
495 165 2 -0.8476 28.713631 28.964508 21.188121
496 166 1 0.4238 8.509058 5.314998 29.105171
497 166 1 0.4238 7.859967 3.900716 29.600322
498 166 2 -0.8476 7.812896 4.895738 29.687860
499 167 1 0.4238 13.567547 29.466933 15.545751
500 167 1 0.4238 13.846387 29.317866 17.147848
501 167 2 -0.8476 14.123127 29.790942 16.311451
502 168 1 0.4238 13.258627 10.387988 7.426659
503 168 1 0.4238 14.284493 9.164224 7.768256
504 168 2 -0.8476 13.343511 9.490247 7.858865
505 169 1 0.4238 22.344272 24.506868 25.739109
506 169 1 0.4238 23.536061 25.619426 25.831548
507 169 2 -0.8476 22.545622 25.481693 25.834616
508 170 1 0.4238 1.377501 20.265302 27.315829
509 170 1 0.4238 0.665659 19.072811 28.174860
510 170 2 -0.8476 0.758472 19.481490 27.266942
511 171 1 0.4238 20.977333 9.187655 3.661543
512 171 1 0.4238 20.074653 10.342239 2.941272
513 171 2 -0.8476 20.929033 10.158615 3.427341
514 172 1 0.4238 17.215373 26.521832 9.841937
515 172 1 0.4238 15.941237 25.810648 10.575071
516 172 2 -0.8476 16.307274 26.127848 9.700229
517 173 1 0.4238 6.954389 23.165494 3.703001
518 173 1 0.4238 7.285871 23.498639 5.266914
519 173 2 -0.8476 6.843092 22.851859 4.645971
520 174 1 0.4238 14.871144 5.419231 13.420409
521 174 1 0.4238 15.175823 3.816452 13.349990
522 174 2 -0.8476 14.488148 4.524643 13.190250
523 175 1 0.4238 14.685014 7.883129 17.810720
524 175 1 0.4238 16.178614 7.228787 17.898371
525 175 2 -0.8476 15.650576 8.073210 17.988220
526 176 1 0.4238 21.554630 0.482790 3.009114
527 176 1 0.4238 21.240510 0.332860 4.604588
528 176 2 -0.8476 20.908321 0.127019 3.684139
529 177 1 0.4238 28.746336 10.980167 11.779053
530 177 1 0.4238 27.230325 11.285332 11.254390
531 177 2 -0.8476 28.139051 10.966837 10.984714
532 178 1 0.4238 17.609447 19.407006 14.500479
533 178 1 0.4238 16.418579 20.265991 13.785869
534 178 2 -0.8476 16.771145 19.346333 13.958708
535 179 1 0.4238 5.655055 20.221174 0.048044
536 179 1 0.4238 6.687373 21.485767 0.005453
537 179 2 -0.8476 6.617458 20.488260 -0.000872
538 180 1 0.4238 2.731280 11.457122 14.191098
539 180 1 0.4238 3.504970 12.525315 13.228260
540 180 2 -0.8476 3.031532 12.406693 14.101033
541 181 1 0.4238 23.404721 7.386111 0.136421
542 181 1 0.4238 22.348256 6.368755 0.854445
543 181 2 -0.8476 22.712565 6.682114 -0.022500
544 182 1 0.4238 29.105818 2.148823 14.372856
545 182 1 0.4238 28.706384 2.424558 15.932059
546 182 2 -0.8476 28.801184 2.840486 15.027645
547 183 1 0.4238 21.274133 15.016697 1.449227
548 183 1 0.4238 21.136556 16.435362 2.246192
549 183 2 -0.8476 21.035426 15.443372 2.321532
550 184 1 0.4238 20.442740 29.990626 17.429497
551 184 1 0.4238 19.940479 28.436899 17.448356
552 184 2 -0.8476 20.582221 29.092438 17.846331
553 185 1 0.4238 24.515200 13.606863 2.210436
554 185 1 0.4238 23.103777 13.978321 2.942962
555 185 2 -0.8476 24.088707 13.868369 3.076268
556 186 1 0.4238 13.747552 23.286444 2.763554
557 186 1 0.4238 15.110710 22.461091 2.406786
558 186 2 -0.8476 14.739531 23.256344 2.886106
559 187 1 0.4238 7.634414 13.168773 18.955327
560 187 1 0.4238 6.783981 14.506022 19.349305
561 187 2 -0.8476 7.197629 13.667523 19.703935
562 188 1 0.4238 4.571304 8.612338 27.770409
563 188 1 0.4238 3.872721 7.172374 28.094717
564 188 2 -0.8476 3.934833 7.919048 27.432472
565 189 1 0.4238 20.658002 26.604655 25.935289
566 189 1 0.4238 20.102346 25.083020 25.728982
567 189 2 -0.8476 20.112987 25.872128 26.343102
568 190 1 0.4238 1.098532 7.706112 2.645047
569 190 1 0.4238 0.440132 7.089717 1.283703
570 190 2 -0.8476 0.333225 7.773992 2.005012
571 191 1 0.4238 23.298244 16.134148 0.730553
572 191 1 0.4238 24.033536 16.265540 2.182714
573 191 2 -0.8476 23.509048 15.659281 1.584960
574 192 1 0.4238 27.334147 8.067915 25.749018
575 192 1 0.4238 28.742111 7.474119 26.324981
576 192 2 -0.8476 27.779972 7.266775 26.148221
577 193 1 0.4238 3.473022 4.354377 5.256259
578 193 1 0.4238 2.338868 4.023591 6.383629
579 193 2 -0.8476 3.085473 3.640663 5.839667
580 194 1 0.4238 3.817943 11.286429 16.458890
581 194 1 0.4238 3.522244 12.883889 16.293449
582 194 2 -0.8476 3.691236 12.148460 16.949599
583 195 1 0.4238 28.759762 27.064186 4.163594
584 195 1 0.4238 27.381904 27.771429 3.645903
585 195 2 -0.8476 28.204982 27.280610 3.360271
586 196 1 0.4238 1.956673 11.987326 25.241309
587 196 1 0.4238 2.405812 13.386001 24.528095
588 196 2 -0.8476 2.684832 12.668589 25.166386
589 197 1 0.4238 27.625012 6.063775 15.272862
590 197 1 0.4238 26.494938 5.786498 14.127115
591 197 2 -0.8476 27.054060 5.365424 14.841276
592 198 1 0.4238 0.830750 25.239131 9.255473
593 198 1 0.4238 0.000358 26.465891 8.568307
594 198 2 -0.8476 0.869769 25.971917 8.576172
595 199 1 0.4238 25.863503 9.146755 6.793529
596 199 1 0.4238 27.002581 8.490662 7.762411
597 199 2 -0.8476 26.031748 8.483650 7.522867
598 200 1 0.4238 -0.061559 7.168754 27.801589
599 200 1 0.4238 0.173161 5.659061 27.225029
600 200 2 -0.8476 0.627023 6.487887 27.552144
601 201 1 0.4238 8.278496 14.523779 7.413434
602 201 1 0.4238 9.599834 13.786709 8.027830
603 201 2 -0.8476 8.632158 13.987739 8.179940
604 202 1 0.4238 2.584420 5.623267 23.078206
605 202 1 0.4238 3.900967 4.657844 23.041462
606 202 2 -0.8476 3.343139 5.298320 22.513669
607 203 1 0.4238 18.640842 14.560093 15.261655
608 203 1 0.4238 18.632370 13.577880 13.957096
609 203 2 -0.8476 18.489855 13.623400 14.945815
610 204 1 0.4238 7.548411 19.012542 1.340688
611 204 1 0.4238 6.172876 18.199515 1.003671
612 204 2 -0.8476 6.577680 18.922645 1.563282
613 205 1 0.4238 29.451072 9.395621 9.646115
614 205 1 0.4238 29.687194 9.029493 11.219927
615 205 2 -0.8476 29.694223 8.668061 10.287583
616 206 1 0.4238 0.001117 2.817152 26.399886
617 206 1 0.4238 1.226830 1.770566 26.137254
618 206 2 -0.8476 0.328801 2.072988 25.817828
619 207 1 0.4238 16.098683 13.102939 16.123062
620 207 1 0.4238 17.116879 12.421572 17.202741
621 207 2 -0.8476 16.906306 13.255484 16.692644
622 208 1 0.4238 4.725213 21.148941 14.255307
623 208 1 0.4238 3.466413 21.281981 13.223604
624 208 2 -0.8476 4.424205 21.523993 13.378565
625 209 1 0.4238 13.112254 5.700287 0.933124
626 209 1 0.4238 14.103315 4.607295 1.633022
627 209 2 -0.8476 13.197442 5.029204 1.669560
628 210 1 0.4238 25.633239 3.210471 12.853436
629 210 1 0.4238 27.252603 3.089534 12.681030
630 210 2 -0.8476 26.489305 2.985146 13.318546
631 211 1 0.4238 7.964480 16.284693 18.393249
632 211 1 0.4238 9.043829 15.061138 18.325390
633 211 2 -0.8476 8.604484 15.730050 18.924956
634 212 1 0.4238 9.178113 24.669175 14.669440
635 212 1 0.4238 9.590638 23.192234 15.230828
636 212 2 -0.8476 9.384100 24.135753 15.489791
637 213 1 0.4238 19.027724 0.175706 15.671313
638 213 1 0.4238 19.792256 1.415027 16.410411
639 213 2 -0.8476 19.856488 0.449182 16.159482
640 214 1 0.4238 3.693668 29.555720 24.372667
641 214 1 0.4238 2.132924 29.957036 24.108637
642 214 2 -0.8476 2.887247 29.999220 24.763743
643 215 1 0.4238 24.488577 26.186828 27.741985
644 215 1 0.4238 23.074907 25.728815 28.419075
645 215 2 -0.8476 23.989840 25.424392 28.154176
646 216 1 0.4238 11.507544 23.800559 18.887788
647 216 1 0.4238 12.433742 22.458136 18.805634
648 216 2 -0.8476 12.438926 23.457336 18.766651
649 217 1 0.4238 5.944185 14.580845 12.800176
650 217 1 0.4238 4.312643 14.530799 12.847665
651 217 2 -0.8476 5.120588 14.313712 12.299901