ITEM: TIMESTEP
0
ITEM: NUMBER OF ATOMS
2703
ITEM: BOX BOUNDS pp pp pp
-1.0000000000000000e+00 3.1000000000000000e+01
-1.0000000000000000e+00 3.1000000000000000e+01
-1.0000000000000000e+00 1.0100000000000000e+02
ITEM: ATOMS id type xs ys zs
502 1 0.0884994 0.0311567 0.0386323
503 1 0.139037 0.0310752 0.0408526
504 2 0.111274 0.0323448 0.0453352
538 1 0.233764 0.177278 0.0700065
539 1 0.243189 0.142871 0.0585588
540 2 0.243464 0.173315 0.0607701
692 1 0.0312577 0.217274 0.0722035
693 2 0.0320177 0.188743 0.0761964
919 1 0.0444655 0.186194 0.049661
920 1 0.031281 0.146051 0.0586384
921 2 0.0542983 0.159041 0.0534073
944 1 0.14729 0.0968525 0.080124
1195 1 0.104551 0.056034 0.0653123
1196 1 0.0705256 0.0933451 0.0630015
1197 2 0.0901066 0.0803737 0.0694682
1289 1 0.24242 0.184178 0.00946003
1334 1 0.248047 0.115416 0.0782655
1363 1 0.151503 0.178355 0.0703068
1364 1 0.119548 0.155526 0.0600837
1365 2 0.139687 0.179139 0.0612341
1432 1 0.233605 0.249802 0.0226308
1474 1 0.192225 0.231034 0.0651388
1476 2 0.212538 0.24422 0.0589424
1735 1 0.0943253 0.0580338 0.0188841
1736 1 0.046059 0.045553 0.0223025
1737 2 0.065518 0.0548993 0.0152137
1795 1 0.207666 0.171447 0.0276507
1796 1 0.171683 0.204913 0.031969
1797 2 0.194271 0.186002 0.0352407
1975 1 0.0928259 0.105217 0.0411803
1976 1 0.0423807 0.0977973 0.0405257
1977 2 0.0690772 0.096329 0.0354505
2011 1 0.175496 0.127063 0.0483741
2012 1 0.187552 0.0824296 0.0551512
2013 2 0.178338 0.111778 0.0568787
2443 1 0.0988354 0.237423 0.0430968
2444 1 0.0657553 0.236246 0.0309121
2445 2 0.0691815 0.242548 0.0404543
2588 1 0.2362 0.0311539 0.0771806
2593 1 0.233309 0.0796632 0.0096599
2594 1 0.220291 0.0307593 0.0117183
2595 2 0.232266 0.0560603 0.0160769
2641 1 0.153349 0.0873015 0.0292694
2642 1 0.203146 0.0976058 0.0306099
2643 2 0.176686 0.10524 0.0259764
10 1 0.459134 0.179686 0.0126349
11 1 0.450214 0.229311 0.0101669
12 2 0.471745 0.20671 0.00970554
211 1 0.365346 0.153618 0.0526967
212 1 0.35756 0.122687 0.0401996
213 2 0.376941 0.143748 0.0441353
686 1 0.471987 0.241922 0.0807938
778 1 0.360748 0.110034 0.0703298
779 1 0.316956 0.135661 0.0686209
780 2 0.330007 0.1095 0.0720842
1102 1 0.368761 0.212621 0.00984656
1103 1 0.366925 0.161624 0.00978469
1104 2 0.367907 0.18705 0.0154759
1288 1 0.288681 0.162725 0.0100668
1290 2 0.272543 0.18905 0.0115744
1399 1 0.454134 0.231615 0.0510679
1400 1 0.462062 0.19277 0.0611478
1401 2 0.444224 0.203292 0.053806
1445 1 0.465259 0.124616 0.0584099
1446 2 0.494498 0.118455 0.0612795
1603 1 0.417589 0.180766 0.0770788
1604 1 0.366891 0.175184 0.0765588
1605 2 0.390723 0.194106 0.0743285
1765 1 0.429228 0.0807885 0.0734643
1766 1 0.467068 0.0465509 0.0735529
1767 2 0.448111 0.0634795 0.0678485
1798 1 0.412559 0.0311954 0.0496886
1799 1 0.419124 0.0816549 0.0484791
1800 2 0.41653 0.0549625 0.0434462
1850 1 0.30536 0.234312 0.023918
1855 1 0.357609 0.0880615 0.0209157
1856 1 0.404492 0.0702137 0.0179795
1857 2 0.382857 0.0747559 0.0249091
2101 1 0.2992 0.0821858 0.0480209
2102 1 0.252406 0.0620907 0.0469938
2103 2 0.276487 0.0734746 0.0418666
2137 1 0.320196 0.220955 0.0612489
2139 2 0.339037 0.237278 0.0671609
2293 1 0.288743 0.0366905 0.0633155
2294 1 0.338794 0.0463987 0.0640007
2295 2 0.315431 0.0298974 0.0679495
2410 1 0.27138 0.171574 0.0405193
2411 1 0.319013 0.189736 0.0397937
2412 2 0.29672 0.178936 0.0457708
2500 1 0.389105 0.207834 0.0373589
2501 1 0.43419 0.219764 0.03086
2502 2 0.411923 0.197913 0.0314274
2527 1 0.422273 0.131047 0.0275788
2528 1 0.464036 0.1491 0.0348294
2529 2 0.44565 0.124085 0.0337073
316 1 0.0934585 0.378406 0.0281471
317 1 0.12166 0.374604 0.0148578
318 2 0.0930648 0.38043 0.0183646
400 1 0.220868 0.456927 0.0562159
401 1 0.223345 0.450153 0.0720648
402 2 0.240082 0.454922 0.0639219
473 1 0.144336 0.490298 0.0217242
571 1 0.145561 0.43047 0.0381627
572 1 0.100271 0.449019 0.0426959
573 2 0.11731 0.439413 0.0350501
611 1 0.234187 0.415097 0.016179
624 2 0.248591 0.285059 0.0749874
983 1 0.12175 0.352486 0.0794974
1108 1 0.112221 0.466407 0.0736289
1109 1 0.0672779 0.446729 0.0692251
1110 2 0.0842938 0.456761 0.0768221
1207 1 0.216048 0.389123 0.0616884
1208 1 0.219579 0.341451 0.0560849
1209 2 0.230297 0.370658 0.0551636
1349 1 0.0312502 0.490211 0.0331602
1408 1 0.12606 0.372668 0.0480637
1409 1 0.153683 0.355751 0.0604346
1410 2 0.12488 0.362945 0.0573737
1433 1 0.245329 0.277995 0.00980311
1434 2 0.224326 0.258403 0.0136662
1475 1 0.197881 0.265899 0.0535836
1699 1 0.0340698 0.375182 0.0441595
1700 1 0.0690372 0.338031 0.0438194
1701 2 0.0553634 0.359686 0.0494372
1744 1 0.0326915 0.30624 0.0165354
1745 1 0.0309599 0.295273 0.0321614
1746 2 0.0428156 0.314646 0.0254278
1751 1 0.0738749 0.26554 0.0830731
1865 1 0.156917 0.485522 0.0537769
1866 2 0.151608 0.49579 0.0446684
2176 1 0.23544 0.314622 0.0347105
2177 1 0.241893 0.351144 0.0237139
2317 1 0.0385156 0.305151 0.0614482
2318 1 0.0891432 0.2995 0.0605053
2319 2 0.0656819 0.310396 0.0660058
2332 1 0.153824 0.332159 0.0286217
2333 1 0.135742 0.289992 0.0356301
2334 2 0.128016 0.317631 0.0317504
2599 1 0.174367 0.294035 0.0718618
2600 1 0.146902 0.259654 0.0799687
2601 2 0.150099 0.290039 0.07791
241 1 0.287898 0.366746 0.0765901
242 1 0.292187 0.404501 0.0659038
243 2 0.298752 0.374505 0.0677247
262 1 0.491376 0.464905 0.0679674
263 1 0.491521 0.489136 0.0538779
264 2 0.484107 0.462526 0.0584617
388 1 0.411726 0.345952 0.0422946
389 1 0.459444 0.356934 0.0468033
390 2 0.429801 0.366824 0.0468864
415 1 0.482916 0.307304 0.0605536
416 1 0.434556 0.291213 0.0597522
417 2 0.459084 0.295415 0.0656822
466 1 0.399876 0.428174 0.0440043
467 1 0.417697 0.470491 0.0370184
468 2 0.414206 0.455504 0.0455513
610 1 0.284771 0.419635 0.0146181
612 2 0.257627 0.418368 0.00977688
622 1 0.266757 0.262149 0.0784479
623 1 0.265966 0.305071 0.0697924
661 1 0.37571 0.294991 0.0333093
662 1 0.378206 0.279611 0.0180642
663 2 0.377267 0.270107 0.0273991
829 1 0.41077 0.378426 0.0727334
830 1 0.38671 0.334455 0.0697285
831 2 0.413708 0.349923 0.068821
841 1 0.35781 0.429078 0.061987
842 1 0.393772 0.46144 0.0670804
843 2 0.36754 0.45877 0.0618185
1235 1 0.380756 0.261246 0.0826701
1261 1 0.347515 0.341691 0.0139934
1262 1 0.383486 0.377874 0.0143082
1263 2 0.375351 0.349678 0.0176781
1387 1 0.332998 0.335837 0.0463336
1388 1 0.286662 0.353534 0.0425698
1389 2 0.302305 0.33215 0.0477684
1849 1 0.312416 0.264061 0.0111001
1851 2 0.312113 0.263268 0.0209004
1936 1 0.323777 0.267145 0.0452737
1937 1 0.27621 0.269482 0.0510246
1938 2 0.29368 0.261651 0.043276
2054 1 0.332742 0.489113 0.0781916
2055 2 0.304908 0.491558 0.0738009
2059 1 0.335498 0.449208 0.0402351
2060 1 0.292654 0.421667 0.0392427
2061 2 0.314232 0.433141 0.045353
2084 1 0.399603 0.497169 0.0102006
2085 2 0.374942 0.496222 0.0162147
2138 1 0.331655 0.267601 0.0666553
2178 2 0.250977 0.322682 0.0265886
2609 1 0.45782 0.286723 0.0270699
2610 2 0.473226 0.28028 0.0353567
265 1 0.129866 0.126299 0.106148
266 1 0.167692 0.147254 0.0976471
267 2 0.154422 0.145593 0.106508
292 1 0.161669 0.0940628 0.155998
293 1 0.130049 0.097449 0.143477
294 2 0.145268 0.0777542 0.149405
358 1 0.0406881 0.0978437 0.159756
359 1 0.0853157 0.0804727 0.165287
360 2 0.0647896 0.0788405 0.157912
364 1 0.0783578 0.0657894 0.0945031
365 1 0.0683904 0.115105 0.091828
366 2 0.0621144 0.0858664 0.0889827
433 1 0.032508 0.190023 0.126899
434 1 0.0312482 0.182905 0.142748
435 2 0.0484636 0.193429 0.135261
518 1 0.248481 0.153696 0.113024
628 1 0.106965 0.172079 0.0911938
629 1 0.100401 0.219455 0.0967757
630 2 0.11223 0.202377 0.0894517
691 1 0.0435157 0.190577 0.0852944
722 1 0.204121 0.0863697 0.122537
723 2 0.230344 0.0834787 0.127792
781 1 0.226392 0.164749 0.145656
782 1 0.234105 0.114456 0.146878
783 2 0.230462 0.138242 0.140623
802 1 0.153625 0.171637 0.128322
803 1 0.188599 0.207426 0.131462
804 2 0.173649 0.192 0.124342
943 1 0.13999 0.0491617 0.08534
945 2 0.146095 0.078555 0.0880628
1033 1 0.208893 0.0925731 0.0955911
1034 1 0.211705 0.0499111 0.104331
1035 2 0.22551 0.0772301 0.102356
1417 1 0.141246 0.207474 0.149084
1418 1 0.139263 0.158656 0.153705
1419 2 0.157383 0.180801 0.149764
1424 1 0.151485 0.242115 0.10918
1425 2 0.180603 0.249555 0.111867
1519 1 0.0737296 0.0404765 0.136888
1520 1 0.0346616 0.0646055 0.129904
1521 2 0.0461013 0.0542309 0.138427
1549 1 0.0558886 0.21843 0.161852
1963 1 0.0903473 0.149726 0.122438
1964 1 0.0898544 0.0986999 0.122595
1965 2 0.0736034 0.124301 0.120224
2086 1 0.0760718 0.243299 0.123079
2589 2 0.248908 0.0407673 0.0856141
2656 1 0.230211 0.21949 0.0950206
2657 1 0.192274 0.200304 0.086165
2658 2 0.199933 0.222167 0.0927451
67 1 0.488804 0.245031 0.108675
166 1 0.31016 0.0397041 0.141433
167 1 0.298311 0.0459181 0.156882
168 2 0.318923 0.0334534 0.150636
235 1 0.409693 0.207021 0.164356
236 1 0.42835 0.159958 0.166368
237 2 0.418166 0.180723 0.159775
517 1 0.270109 0.199649 0.111464
519 2 0.266556 0.175033 0.1174
685 1 0.454899 0.211339 0.0924346
687 2 0.447948 0.235862 0.0867626
721 1 0.254834 0.0812819 0.121742
763 1 0.496294 0.0709199 0.105987
765 2 0.499262 0.0694364 0.0962384
991 1 0.35857 0.176001 0.148991
992 1 0.35145 0.168968 0.16469
993 2 0.337482 0.169367 0.15592
1066 1 0.40141 0.0312398 0.135412
1067 1 0.435062 0.0679474 0.138908
1068 2 0.411474 0.0507261 0.142396
1075 1 0.454479 0.128901 0.0947021
1076 1 0.406126 0.115453 0.0918058
1077 2 0.424871 0.138885 0.0945431
1333 1 0.274907 0.130813 0.0909921
1335 2 0.268503 0.106576 0.0851385
1492 1 0.335488 0.135633 0.102703
1493 1 0.325284 0.176575 0.0936993
1494 2 0.347905 0.160419 0.0981783
1616 1 0.341277 0.223633 0.108462
1617 2 0.340511 0.248558 0.114371
1840 1 0.36627 0.102953 0.160622
1841 1 0.344225 0.108069 0.146273
1842 2 0.369796 0.0982542 0.150993
2356 1 0.361735 0.170564 0.12748
2357 1 0.335557 0.127426 0.125091
2358 2 0.361347 0.143316 0.122681
2536 1 0.417626 0.0656875 0.113588
2537 1 0.427817 0.0453158 0.0992616
2538 2 0.41584 0.0397527 0.108147
2551 1 0.359038 0.0335671 0.092904
2552 1 0.332404 0.0767838 0.0912719
2553 2 0.343341 0.05586 0.0976948
2587 1 0.278639 0.0312514 0.086071
70 1 0.244307 0.393317 0.109174
71 1 0.197681 0.405829 0.114363
72 2 0.222837 0.388145 0.116111
343 1 0.220138 0.297567 0.159541
344 1 0.171727 0.312724 0.16128
345 2 0.190302 0.290295 0.157725
484 1 0.24175 0.441868 0.133831
485 1 0.23614 0.462906 0.119352
486 2 0.22183 0.456504 0.127833
526 1 0.0626536 0.42564 0.149271
527 1 0.0316738 0.39423 0.141225
528 2 0.0421573 0.402204 0.150116
601 1 0.185275 0.418039 0.0875357
602 1 0.226711 0.39138 0.0833679
603 2 0.205455 0.396004 0.0904067
649 1 0.0341941 0.352385 0.0957681
650 1 0.0515747 0.399691 0.093256
651 2 0.0425977 0.37313 0.0889264
736 1 0.125453 0.390863 0.109587
737 1 0.0829461 0.388748 0.11842
738 2 0.0962215 0.37989 0.109991
740 1 0.243387 0.474751 0.160956
745 1 0.208905 0.482182 0.0991835
747 2 0.230231 0.460022 0.0974457
982 1 0.119367 0.401763 0.0835906
984 2 0.111303 0.372743 0.0862044
997 1 0.050967 0.496107 0.0910713
999 2 0.0667402 0.491733 0.0994227
1042 1 0.166779 0.350457 0.124312
1043 1 0.163715 0.321372 0.137431
1044 2 0.181306 0.328657 0.129657
1198 1 0.136037 0.460108 0.106893
1199 1 0.116899 0.448882 0.12131
1200 2 0.14317 0.453822 0.116232
1213 1 0.0948741 0.302651 0.138173
1214 1 0.118986 0.281294 0.15059
1215 2 0.106945 0.276098 0.141692
1225 1 0.0522487 0.334157 0.157127
1226 1 0.0487185 0.283607 0.155236
1227 2 0.0364624 0.311187 0.152693
1423 1 0.184954 0.280303 0.11077
1436 1 0.0379133 0.475934 0.164
1750 1 0.0308642 0.29294 0.0836557
1752 2 0.0526627 0.278479 0.0890189
1867 1 0.201961 0.36294 0.14998
1868 1 0.240671 0.396156 0.150457
1869 2 0.224113 0.377096 0.14468
1980 2 0.155234 0.378047 0.165586
2087 1 0.04208 0.281149 0.12182
2088 2 0.0617826 0.262764 0.116856
2097 2 0.240548 0.300151 0.122008
2104 1 0.220597 0.320594 0.0949151
2105 1 0.17406 0.338152 0.0984934
2106 2 0.192586 0.32808 0.091258
2287 1 0.107115 0.287993 0.101294
2288 1 0.122304 0.303303 0.115804
2289 2 0.108831 0.312324 0.107423
2419 1 0.135841 0.394703 0.138242
2420 1 0.114852 0.361136 0.148344
2421 2 0.109012 0.381787 0.141218
2482 1 0.178538 0.441652 0.155348
2483 1 0.127932 0.447878 0.15469
2484 2 0.15277 0.447013 0.160633
64 1 0.426674 0.391594 0.157716
65 1 0.452359 0.430303 0.15109
66 2 0.442084 0.418159 0.159529
68 1 0.457697 0.281458 0.103155
69 2 0.463075 0.261715 0.110565
250 1 0.37236 0.457237 0.144249
251 1 0.37296 0.406242 0.144817
252 2 0.374406 0.431122 0.138903
580 1 0.377724 0.270798 0.136519
581 1 0.422174 0.279296 0.12912
582 2 0.407877 0.277868 0.137827
607 1 0.43934 0.355405 0.101937
608 1 0.402606 0.388872 0.0982963
609 2 0.408484 0.359463 0.101051
746 1 0.258819 0.472609 0.0977418
835 1 0.464187 0.284476 0.165704
837 2 0.458735 0.255234 0.162699
844 1 0.289886 0.321534 0.096424
845 1 0.325934 0.285421 0.0966527
846 2 0.308031 0.303234 0.0908787
865 1 0.348318 0.307344 0.152951
866 1 0.375377 0.336596 0.14295
867 2 0.355291 0.336753 0.15046
1147 1 0.491694 0.409137 0.111375
1148 1 0.497332 0.459313 0.113695
1234 1 0.414776 0.296692 0.0869978
1236 2 0.391806 0.278072 0.0901691
1291 1 0.478275 0.476938 0.165141
1564 1 0.351866 0.460773 0.117397
1565 1 0.391931 0.491462 0.115027
1566 2 0.379249 0.470318 0.121051
1573 1 0.342848 0.336589 0.113948
1574 1 0.312289 0.350275 0.126029
1575 2 0.329396 0.327025 0.122273
1615 1 0.369362 0.26016 0.115344
1839 2 0.337035 0.496121 0.164869
2029 1 0.316583 0.417515 0.163893
2030 1 0.367072 0.421501 0.165853
2095 1 0.253659 0.28574 0.129673
2096 1 0.262855 0.313029 0.116456
2215 1 0.303353 0.405936 0.138429
2216 1 0.300074 0.418117 0.122917
2217 2 0.308812 0.428236 0.131778
2263 1 0.443119 0.437672 0.124928
2264 1 0.453474 0.388803 0.1282
2265 2 0.43622 0.413538 0.130768
2425 1 0.355611 0.435527 0.0908943
2426 1 0.305398 0.426501 0.0912459
2427 2 0.330939 0.430838 0.0967285
2697 2 0.496477 0.251438 0.138791
40 1 0.0313232 0.0816167 0.224168
41 1 0.031257 0.0305879 0.224304
42 2 0.0447429 0.0559829 0.220464
157 1 0.191414 0.0610103 0.221393
158 1 0.195062 0.111372 0.223709
159 2 0.187219 0.0890843 0.217293
373 1 0.090635 0.067696 0.243697
374 1 0.115757 0.0304882 0.236086
375 2 0.0893774 0.0472274 0.236299
409 1 0.158479 0.0829744 0.239352
410 1 0.172566 0.0418371 0.247732
411 2 0.175404 0.0728603 0.246959
676 1 0.206963 0.0535487 0.19121
677 1 0.203481 0.0636222 0.175554
678 2 0.187264 0.0571244 0.183683
1015 1 0.103165 0.158961 0.205467
1016 1 0.107409 0.139157 0.190773
1017 2 0.122672 0.153862 0.197977
1019 1 0.242375 0.24386 0.174232
1085 1 0.236952 0.207293 0.236815
1126 1 0.135965 0.197831 0.236793
1127 1 0.17874 0.172034 0.23352
1128 2 0.16646 0.20047 0.234819
1550 1 0.0752197 0.175123 0.167762
1551 2 0.0680489 0.20483 0.169812
1582 1 0.152787 0.211831 0.204452
1583 1 0.143458 0.238117 0.217859
1584 2 0.149062 0.209719 0.214164
1759 1 0.0952698 0.140315 0.23877
1760 1 0.132227 0.137007 0.24976
1761 2 0.10205 0.143619 0.248284
1772 1 0.041523 0.203351 0.240515
1773 2 0.0311686 0.229976 0.236541
1816 1 0.059395 0.241664 0.216126
1817 1 0.0697561 0.225693 0.201272
1818 2 0.0634468 0.216542 0.210435
1861 1 0.189434 0.149275 0.20362
1862 1 0.215104 0.190165 0.198434
1863 2 0.196847 0.166305 0.195736
2056 1 0.167384 0.235607 0.18417
2057 1 0.137356 0.195266 0.181451
2058 2 0.152665 0.219015 0.177263
2290 1 0.0368904 0.126331 0.208121
2291 1 0.0770746 0.0955483 0.206093
2292 2 0.0546859 0.111696 0.201498
56 1 0.428126 0.199697 0.249888
163 1 0.267959 0.157563 0.213396
164 1 0.299711 0.138366 0.224388
165 2 0.28726 0.164623 0.220782
169 1 0.266439 0.106198 0.240804
171 2 0.252748 0.129554 0.245701
238 1 0.331733 0.070148 0.236135
239 1 0.36261 0.0636862 0.248719
240 2 0.361181 0.0725467 0.239328
370 1 0.432719 0.214239 0.223703
371 1 0.473176 0.226359 0.214716
372 2 0.454328 0.203114 0.21754
475 1 0.352833 0.178525 0.209379
476 1 0.361565 0.228795 0.20966
477 2 0.357091 0.204 0.20386
823 1 0.310072 0.192138 0.180305
824 1 0.334171 0.151355 0.186258
825 2 0.315632 0.175544 0.188427
836 1 0.475216 0.235289 0.168197
859 1 0.324316 0.199149 0.248485
860 1 0.324423 0.14842 0.246748
1084 1 0.262269 0.229666 0.248813
1086 2 0.251764 0.202432 0.245312
1129 1 0.340549 0.0526824 0.181499
1130 1 0.386975 0.0428128 0.175618
1131 2 0.356509 0.036358 0.174804
1394 1 0.495513 0.0786423 0.204186
1684 1 0.393113 0.0820872 0.209442
1685 1 0.34499 0.095916 0.212534
1686 2 0.364497 0.0853119 0.205634
1690 1 0.277953 0.218145 0.20191
1692 2 0.258035 0.238846 0.205769
1732 1 0.412066 0.193194 0.191011
1733 1 0.45505 0.220306 0.189556
1734 2 0.427754 0.213248 0.185327
1882 1 0.479371 0.1519 0.249542
1993 1 0.255639 0.136433 0.187856
1994 1 0.262623 0.148364 0.172445
1995 2 0.259604 0.124857 0.178835
2329 1 0.433586 0.149237 0.230832
2330 1 0.389843 0.124768 0.227823
2331 2 0.410413 0.145539 0.224357
2369 1 0.307729 0.229775 0.223268
2370 2 0.288254 0.24645 0.228873
2477 1 0.42965 0.0732876 0.24309
2478 2 0.431354 0.09989 0.248207
2491 1 0.483786 0.1024 0.231978
2701 1 0.262313 0.0326691 0.246208
386 1 0.238264 0.32722 0.19545
586 1 0.0655494 0.401854 0.237173
587 1 0.103398 0.431621 0.231872
588 2 0.0837916 0.408501 0.229491
664 1 0.133767 0.492494 0.229258
665 1 0.183345 0.480405 0.229234
670 1 0.238146 0.43865 0.246163
671 1 0.187506 0.442948 0.247609
728 1 0.234305 0.415172 0.225879
729 2 0.243204 0.385395 0.224853
741 2 0.241266 0.495576 0.168236
1000 1 0.0766517 0.315815 0.244078
1002 2 0.10622 0.324346 0.245783
1156 1 0.0350784 0.321535 0.190595
1157 1 0.0782334 0.29857 0.195188
1158 2 0.0658354 0.325247 0.191881
1201 1 0.110034 0.255883 0.244827
1202 1 0.156402 0.272574 0.248984
1240 1 0.179966 0.308191 0.230497
1241 1 0.215863 0.273525 0.233843
1242 2 0.199857 0.287451 0.226645
1435 1 0.0501142 0.494714 0.178386
1437 2 0.0563829 0.495994 0.16879
1510 1 0.0376256 0.442263 0.206763
1511 1 0.0312457 0.39789 0.199114
1512 2 0.0394341 0.427868 0.19808
1522 1 0.125594 0.381555 0.195241
1523 1 0.166038 0.357633 0.201485
1524 2 0.154737 0.371754 0.19349
1642 1 0.226287 0.404066 0.185722
1643 1 0.202208 0.437283 0.176201
1644 2 0.207035 0.428672 0.185503
1691 1 0.243122 0.253878 0.198559
1771 1 0.037262 0.253766 0.242603
1978 1 0.126186 0.379664 0.169165
1979 1 0.175491 0.374549 0.17297
1981 1 0.175551 0.376874 0.231158
1982 1 0.162325 0.416367 0.221907
1983 2 0.165257 0.385278 0.222285
2014 1 0.162217 0.445965 0.202052
2015 1 0.119049 0.46776 0.196938
2016 2 0.142232 0.448237 0.194548
2094 2 0.241944 0.331112 0.245433
2326 1 0.103236 0.450072 0.175971
2327 1 0.0634647 0.418112 0.175669
2328 2 0.082766 0.434277 0.181477
2611 1 0.0928719 0.352868 0.211926
2612 1 0.114188 0.329357 0.224463
2613 2 0.117004 0.335396 0.214884
385 1 0.284473 0.309158 0.191703
387 2 0.258909 0.323237 0.188197
424 1 0.429077 0.322391 0.206756
425 1 0.460386 0.30826 0.218595
426 2 0.455651 0.329154 0.211458
448 1 0.420328 0.488648 0.205157
449 1 0.446257 0.4458 0.202085
450 2 0.441062 0.468211 0.208721
541 1 0.402442 0.346154 0.234248
542 1 0.438637 0.365921 0.243677
543 2 0.432503 0.354539 0.234751
718 1 0.468894 0.405227 0.224348
719 1 0.489363 0.451898 0.22352
720 2 0.475421 0.431176 0.229413
727 1 0.265079 0.383443 0.217879
766 1 0.476891 0.359882 0.192988
767 1 0.488332 0.404561 0.186135
768 2 0.481102 0.374639 0.184447
847 1 0.352924 0.38943 0.244867
848 1 0.316758 0.39463 0.233691
849 2 0.322581 0.385449 0.242882
949 1 0.376473 0.407698 0.223561
950 1 0.411368 0.384261 0.214483
951 2 0.380784 0.389152 0.215787
952 1 0.285816 0.496595 0.186982
953 1 0.286105 0.450223 0.180301
954 2 0.287133 0.465901 0.188775
1018 1 0.283239 0.27404 0.172715
1020 2 0.269218 0.252784 0.178398
1096 1 0.397192 0.29843 0.167877
1097 1 0.358267 0.317535 0.176318
1098 2 0.38892 0.31146 0.176401
1120 1 0.326948 0.273671 0.245928
1121 1 0.34665 0.320331 0.243974
1122 2 0.321167 0.302666 0.242753
1264 1 0.447217 0.258603 0.239585
1265 1 0.469834 0.297969 0.246895
1266 2 0.448684 0.289767 0.240152
2020 1 0.316743 0.458606 0.208742
2021 1 0.351314 0.430147 0.201064
2022 2 0.340325 0.459129 0.202311
2031 2 0.341417 0.405991 0.16862
2092 1 0.262601 0.354133 0.246833
2191 1 0.418205 0.494083 0.244728
2192 1 0.429706 0.483847 0.229464
2362 1 0.264839 0.47906 0.230355
2365 1 0.356746 0.299967 0.21009
2366 1 0.380158 0.280162 0.222887
2367 2 0.361802 0.303333 0.219707
2368 1 0.280241 0.272673 0.22417
2581 1 0.282853 0.389645 0.197113
2582 1 0.295262 0.378152 0.182009
2583 2 0.305206 0.391603 0.19029
2659 1 0.364755 0.455217 0.238703
2660 1 0.35613 0.492252 0.228026
2661 2 0.346327 0.464527 0.231343
2680 1 0.401754 0.447553 0.185652
2681 1 0.398448 0.4984 0.184777
2682 2 0.38454 0.47147 0.182389
49 1 0.055096 0.104405 0.258015
50 1 0.0312014 0.143214 0.250812
51 2 0.033275 0.112094 0.251424
170 1 0.24603 0.120148 0.25481
193 1 0.136948 0.219287 0.287688
194 1 0.131358 0.168805 0.286136
195 2 0.133583 0.192351 0.292545
454 1 0.188616 0.149795 0.298458
455 1 0.208155 0.121356 0.286663
456 2 0.196032 0.120742 0.295697
1114 1 0.0316802 0.0431478 0.270416
1115 1 0.0810875 0.0312599 0.268954
1116 2 0.0550771 0.0388003 0.264062
1222 1 0.224738 0.0466993 0.282561
1717 1 0.0905099 0.189665 0.270103
1718 1 0.0414493 0.191256 0.265726
1719 2 0.0708184 0.188364 0.262502
1843 1 0.148374 0.0381183 0.27283
1844 1 0.157414 0.0883378 0.273029
1845 2 0.152984 0.0634389 0.267269
1924 1 0.214324 0.178503 0.262412
1925 1 0.169829 0.158226 0.266993
1926 2 0.187068 0.166917 0.259283
1960 1 0.232943 0.196471 0.282649
1961 1 0.241299 0.202302 0.298336
1962 2 0.235034 0.217224 0.289949
2128 1 0.168203 0.227614 0.268091
2130 2 0.187732 0.244028 0.273753
2437 1 0.0995385 0.0562284 0.287914
2438 1 0.130001 0.0555202 0.300757
2439 2 0.106172 0.0702769 0.296421
2702 1 0.233708 0.0401678 0.259255
2703 2 0.239936 0.0503884 0.250199
55 1 0.407064 0.185553 0.263778
57 2 0.424588 0.207214 0.259339
496 1 0.312812 0.192802 0.299733
497 1 0.340773 0.224625 0.290807
498 2 0.340669 0.206667 0.29883
499 1 0.336035 0.129268 0.302768
500 1 0.382888 0.142417 0.297948
501 2 0.366589 0.124039 0.304008
532 1 0.447167 0.115685 0.285056
533 1 0.455747 0.126708 0.300455
534 2 0.448215 0.138627 0.291705
861 2 0.310891 0.172455 0.251356
871 1 0.443012 0.236034 0.290234
872 1 0.405161 0.202641 0.287879
873 2 0.436188 0.206283 0.288132
1223 1 0.273059 0.0312662 0.284308
1224 2 0.254156 0.0509575 0.279535
1321 1 0.309936 0.0908107 0.25963
1322 1 0.350705 0.117817 0.264205
1323 2 0.327189 0.0997656 0.267306
1791 2 0.491301 0.069219 0.25254
1883 1 0.499426 0.146115 0.264152
1884 2 0.476925 0.160156 0.258967
2227 1 0.344321 0.224585 0.26929
2229 2 0.361346 0.243529 0.26361
2251 1 0.292117 0.0970929 0.289839
2252 1 0.273875 0.14457 0.288534
2253 2 0.288941 0.121624 0.283848
2476 1 0.420726 0.095038 0.2573
103 1 0.204895 0.356093 0.277701
104 1 0.178745 0.31232 0.277057
105 2 0.206894 0.325416 0.275941
672 2 0.214865 0.446645 0.252203
712 1 0.206789 0.422979 0.272658
713 1 0.156555 0.429778 0.270816
714 2 0.17976 0.427702 0.27735
1001 1 0.111856 0.323403 0.255421
1078 1 0.12799 0.369249 0.279255
1079 1 0.0805233 0.3531 0.276274
1080 2 0.101781 0.358093 0.283288
1174 1 0.173588 0.353731 0.252707
1175 1 0.141225 0.393153 0.253215
1176 2 0.157895 0.373104 0.258618
1203 2 0.130572 0.258235 0.25218
1531 1 0.171757 0.267717 0.300797
1532 1 0.15618 0.31528 0.303922
1533 2 0.176188 0.297932 0.298717
1540 1 0.0638432 0.256224 0.264672
1541 1 0.0312445 0.292853 0.260238
1542 2 0.0601021 0.287034 0.263527
1694 1 0.109989 0.48497 0.280686
1813 1 0.0295125 0.403262 0.263112
1814 1 0.0617447 0.370259 0.256267
1815 2 0.0324438 0.374477 0.259407
1999 1 0.0673402 0.292557 0.286125
2000 1 0.118277 0.290572 0.285381
2001 2 0.0935564 0.289374 0.291367
2093 1 0.233988 0.318765 0.254087
2129 1 0.21241 0.253082 0.268451
2689 1 0.0888254 0.423849 0.271324
2690 1 0.0696165 0.458842 0.26135
2691 2 0.0908802 0.436158 0.262336
256 1 0.431908 0.434762 0.288034
257 1 0.403571 0.477139 0.287312
258 2 0.405155 0.448094 0.290894
325 1 0.257846 0.416834 0.28703
326 1 0.304795 0.411719 0.293095
327 2 0.274494 0.414716 0.2953
592 1 0.461263 0.387145 0.273267
593 1 0.462035 0.336841 0.275949
594 2 0.468765 0.364877 0.27973
613 1 0.306593 0.482602 0.262073
615 2 0.321224 0.480185 0.253443
937 1 0.323085 0.324261 0.29291
938 1 0.354759 0.363349 0.295592
939 2 0.349553 0.338127 0.290039
1420 1 0.286046 0.411347 0.25926
1421 1 0.294189 0.367343 0.266954
1422 2 0.273351 0.389942 0.26519
2158 1 0.411673 0.433963 0.265848
2159 1 0.363751 0.41652 0.266415
2160 2 0.382169 0.441142 0.268164
2170 1 0.282827 0.255207 0.270558
2171 1 0.277925 0.303934 0.275058
2172 2 0.281077 0.284727 0.267388
2228 1 0.37847 0.262505 0.26925
2407 1 0.299222 0.488197 0.295894
2409 2 0.316877 0.489906 0.303966
73 1 0.248012 0.645802 0.019178
74 1 0.206942 0.641179 0.00978718
75 2 0.23568 0.630329 0.0115896
118 1 0.0504119 0.683439 0.0278373
119 1 0.058857 0.733756 0.0281515
120 2 0.0370722 0.711486 0.0289227
472 1 0.1128 0.527266 0.0266147
474 2 0.120213 0.508397 0.0191539
493 1 0.0314176 0.547106 0.0570659
494 1 0.0585084 0.503923 0.0577951
495 2 0.0438801 0.52387 0.0518039
793 1 0.193194 0.514343 0.0702547
794 1 0.22977 0.546259 0.0751924
795 2 0.211206 0.522577 0.0778382
817 1 0.197814 0.592706 0.0496253
818 1 0.224051 0.561331 0.0400511
819 2 0.198758 0.579553 0.0407371
1162 1 0.0662594 0.543086 0.0102787
1163 1 0.102213 0.579268 0.00979767
1164 2 0.0759157 0.570011 0.014227
1165 1 0.136223 0.619367 0.0393894
1166 1 0.140491 0.62725 0.0236287
1167 2 0.12179 0.630448 0.031419
1304 1 0.226792 0.657885 0.0509461
1348 1 0.0312505 0.540112 0.029811
1350 2 0.0313035 0.511387 0.0259505
1507 1 0.232776 0.739819 0.0275805
1558 1 0.207839 0.532935 0.019937
1559 1 0.187924 0.578442 0.0162702
1560 2 0.183223 0.551782 0.0211677
1591 1 0.0662077 0.572027 0.0737207
1592 1 0.10884 0.565052 0.0822431
1593 2 0.0914883 0.586057 0.077441
1601 1 0.066124 0.665361 0.0746708
1602 2 0.0369341 0.676192 0.0755117
1729 1 0.0312075 0.606598 0.0396177
1730 1 0.0765047 0.591599 0.0452936
1731 2 0.0495889 0.605767 0.047542
1852 1 0.043901 0.680454 0.0508564
1853 1 0.0931287 0.668368 0.0527038
1854 2 0.0732244 0.688842 0.0487208
1864 1 0.156284 0.526667 0.044309
2113 1 0.119791 0.536691 0.0622533
2114 1 0.136099 0.583655 0.0586407
2115 2 0.142462 0.557687 0.0637165
2245 1 0.133587 0.730216 0.0603905
2246 1 0.158219 0.69458 0.051929
2247 2 0.160763 0.715226 0.059245
2390 1 0.162673 0.672795 0.078355
332 1 0.40727 0.692018 0.0751261
333 2 0.385947 0.678645 0.0809369
481 1 0.483866 0.62742 0.0348903
482 1 0.493291 0.664913 0.0453404
483 2 0.470946 0.64991 0.0403584
490 1 0.272872 0.574367 0.0546576
491 1 0.297197 0.589145 0.0413695
492 2 0.299015 0.587304 0.0511398
1048 1 0.462435 0.639407 0.0114847
1049 1 0.43938 0.594241 0.00969409
1050 2 0.453016 0.613522 0.0161147
1117 1 0.389076 0.645445 0.0223136
1118 1 0.392998 0.596361 0.0265166
1119 2 0.377575 0.623053 0.0281229
1246 1 0.403558 0.667672 0.0541902
1247 1 0.415352 0.717159 0.0529328
1248 2 0.4204 0.688685 0.0492165
1303 1 0.267329 0.682943 0.0452218
1305 2 0.256831 0.664897 0.0525167
1597 1 0.49969 0.572174 0.069184
1598 1 0.462042 0.54091 0.064644
1599 2 0.468751 0.567776 0.0691882
1738 1 0.454669 0.74199 0.0762122
1877 1 0.484751 0.646774 0.0767789
1878 2 0.46693 0.625877 0.0814559
1897 1 0.360532 0.627267 0.0672726
1898 1 0.316213 0.652459 0.0665516
1899 2 0.338705 0.638806 0.0612624
2053 1 0.284615 0.50517 0.0799122
2074 1 0.334207 0.556963 0.0684186
2075 1 0.375951 0.552751 0.0593053
2076 2 0.347588 0.540971 0.0611163
2083 1 0.360809 0.524093 0.0162696
2347 1 0.379938 0.717746 0.0343504
2348 1 0.338814 0.688072 0.0361376
2349 2 0.357471 0.702107 0.0296209
2539 1 0.29693 0.522835 0.027275
2540 1 0.28542 0.503036 0.0415818
2541 2 0.274278 0.509932 0.0326813
2554 1 0.305244 0.620103 0.00996639
2555 1 0.344626 0.587653 0.00980359
2556 2 0.313864 0.590369 0.011304
2662 1 0.454632 0.563822 0.0348199
2663 1 0.420892 0.536989 0.0433872
2664 2 0.448232 0.552097 0.0436829
382 1 0.0710889 0.968765 0.0777536
383 1 0.0312303 0.936937 0.0782389
553 1 0.0962808 0.818874 0.0115842
554 1 0.121139 0.774949 0.0139484
555 2 0.107946 0.799538 0.0183612
1285 1 0.0312731 0.95705 0.0542572
1286 1 0.0634617 0.923987 0.0474209
1287 2 0.0336145 0.933043 0.0480243
1509 2 0.245236 0.756871 0.0203542
1585 1 0.0321595 0.81885 0.0207428
1586 1 0.0576909 0.831226 0.0340498
1587 2 0.0414353 0.80872 0.0295489
1873 1 0.111405 0.875273 0.0380118
1874 1 0.150736 0.871623 0.0278755
1875 2 0.138651 0.887956 0.0353243
1954 1 0.107025 0.910202 0.0743173
1955 1 0.102399 0.863139 0.0683008
1956 2 0.0994354 0.880607 0.0763767
2674 1 0.21805 0.832594 0.0153533
2675 1 0.171649 0.8203 0.00991992
2676 2 0.201916 0.812535 0.00979467
259 1 0.291121 0.891977 0.052511
260 1 0.340564 0.879444 0.0530011
261 2 0.317222 0.888948 0.0472044
397 1 0.286683 0.802591 0.0456411
398 1 0.335831 0.799085 0.0414752
399 2 0.306851 0.804142 0.038168
694 1 0.388917 0.957865 0.0805333
695 1 0.380104 0.913296 0.0732426
696 2 0.380377 0.92811 0.0818745
1508 1 0.259135 0.78212 0.0241434
1739 1 0.45522 0.793009 0.0759236
1740 2 0.452298 0.767206 0.0704695
1916 1 0.457731 0.906807 0.0705468
1917 2 0.483682 0.913229 0.0756235
2044 1 0.449735 0.888389 0.032391
2045 1 0.498842 0.888826 0.028039
2046 2 0.473781 0.870728 0.0294739
2140 1 0.499802 0.933055 0.0109348
2200 1 0.448968 0.828448 0.0546312
2201 1 0.484096 0.819205 0.0433864
2202 2 0.455852 0.811199 0.0467465
2377 1 0.489667 0.945166 0.0401984
2378 1 0.491034 0.902837 0.04913
178 1 0.247151 0.611204 0.142704
179 1 0.232524 0.562355 0.143334
180 2 0.245717 0.585719 0.14836
334 1 0.14835 0.593413 0.117895
335 1 0.137662 0.572359 0.103702
336 2 0.158736 0.588871 0.108759
403 1 0.0315092 0.602553 0.157436
405 2 0.0367936 0.571924 0.158453
739 1 0.23181 0.523053 0.164629
998 1 0.0494046 0.501486 0.106984
1093 1 0.0581594 0.562144 0.0965758
1094 1 0.0314313 0.603225 0.0921156
1095 2 0.0315298 0.571996 0.092481
1282 1 0.221943 0.74879 0.119007
1284 2 0.21999 0.739705 0.109647
1366 1 0.141782 0.522104 0.123222
1367 1 0.189598 0.539376 0.124603